 Entering Gaussian System, Link 0=g09
 Initial command:
 //g09/l1.exe "/scratch/Gau-327.inp" -scrdir="/scratch/"
 Default CPUs for threads:  0,1,2,3
 Default linda workers:  simone,louise
 Default is to use   4 SMP processors on each worker.
 Entering Link 1 = //g09/l1.exe PID=       328.
  
 Copyright (c) 1988,1990,1992,1993,1995,1998,2003,2009,2013,
            Gaussian, Inc.  All Rights Reserved.
  
 This is part of the Gaussian(R) 09 program.  It is based on
 the Gaussian(R) 03 system (copyright 2003, Gaussian, Inc.),
 the Gaussian(R) 98 system (copyright 1998, Gaussian, Inc.),
 the Gaussian(R) 94 system (copyright 1995, Gaussian, Inc.),
 the Gaussian 92(TM) system (copyright 1992, Gaussian, Inc.),
 the Gaussian 90(TM) system (copyright 1990, Gaussian, Inc.),
 the Gaussian 88(TM) system (copyright 1988, Gaussian, Inc.),
 the Gaussian 86(TM) system (copyright 1986, Carnegie Mellon
 University), and the Gaussian 82(TM) system (copyright 1983,
 Carnegie Mellon University). Gaussian is a federally registered
 trademark of Gaussian, Inc.
  
 This software contains proprietary and confidential information,
 including trade secrets, belonging to Gaussian, Inc.
  
 This software is provided under written license and may be
 used, copied, transmitted, or stored only in accord with that
 written license.
  
 The following legend is applicable only to US Government
 contracts under FAR:
  
                    RESTRICTED RIGHTS LEGEND
  
 Use, reproduction and disclosure by the US Government is
 subject to restrictions as set forth in subparagraphs (a)
 and (c) of the Commercial Computer Software - Restricted
 Rights clause in FAR 52.227-19.
  
 Gaussian, Inc.
 340 Quinnipiac St., Bldg. 40, Wallingford CT 06492
  
  
 ---------------------------------------------------------------
 Warning -- This program may not be used in any manner that
 competes with the business of Gaussian, Inc. or will provide
 assistance to any competitor of Gaussian, Inc.  The licensee
 of this program is prohibited from giving any competitor of
 Gaussian, Inc. access to this program.  By using this program,
 the user acknowledges that Gaussian, Inc. is engaged in the
 business of creating and licensing software in the field of
 computational chemistry and represents and warrants to the
 licensee that it is not a competitor of Gaussian, Inc. and that
 it will not use this program in any manner prohibited above.
 ---------------------------------------------------------------
  

 Cite this work as:
 Gaussian 09, Revision D.01,
 M. J. Frisch, G. W. Trucks, H. B. Schlegel, G. E. Scuseria, 
 M. A. Robb, J. R. Cheeseman, G. Scalmani, V. Barone, B. Mennucci, 
 G. A. Petersson, H. Nakatsuji, M. Caricato, X. Li, H. P. Hratchian, 
 A. F. Izmaylov, J. Bloino, G. Zheng, J. L. Sonnenberg, M. Hada, 
 M. Ehara, K. Toyota, R. Fukuda, J. Hasegawa, M. Ishida, T. Nakajima, 
 Y. Honda, O. Kitao, H. Nakai, T. Vreven, J. A. Montgomery, Jr., 
 J. E. Peralta, F. Ogliaro, M. Bearpark, J. J. Heyd, E. Brothers, 
 K. N. Kudin, V. N. Staroverov, T. Keith, R. Kobayashi, J. Normand, 
 K. Raghavachari, A. Rendell, J. C. Burant, S. S. Iyengar, J. Tomasi, 
 M. Cossi, N. Rega, J. M. Millam, M. Klene, J. E. Knox, J. B. Cross, 
 V. Bakken, C. Adamo, J. Jaramillo, R. Gomperts, R. E. Stratmann, 
 O. Yazyev, A. J. Austin, R. Cammi, C. Pomelli, J. W. Ochterski, 
 R. L. Martin, K. Morokuma, V. G. Zakrzewski, G. A. Voth, 
 P. Salvador, J. J. Dannenberg, S. Dapprich, A. D. Daniels, 
 O. Farkas, J. B. Foresman, J. V. Ortiz, J. Cioslowski, 
 and D. J. Fox, Gaussian, Inc., Wallingford CT, 2013.
 
 ******************************************
 Gaussian 09:  AS64L-G09RevD.01 24-Apr-2013
                28-Oct-2014 
 ******************************************
 %Chk=1w7s_8
 SetLPE:  input flags=""
 SetLPE:    new flags=" -nodelist 'simone louise'"
 Will use up to    2 processors via Linda.
 SetSPE:  set environment variable "MP_BIND" = "yes"
 SetSPE:  set environment variable "MP_BLIST" = "0,1,2,3"
 ---------------------------------------
 # amber=hardfirst geom=connectivity opt
 ---------------------------------------
 1/6=10,10=10,14=-1,18=4000020,19=15,38=1,56=2,57=2,64=103/1,3;
 2/9=110,12=2,17=6,18=5,40=1/2;
 3/5=30,11=9,16=1,25=1,30=1,41=10300000,43=2,71=1/1;
 4/20=11,22=1001,24=3/2;
 7/44=-1/16;
 1/6=10,10=10,14=-1,18=4000020,19=15,64=103/3(2);
 2/9=110/2;
 99//99;
 2/9=110/2;
 3/5=30,11=9,16=1,25=1,30=1,41=10300000,43=2,71=1/1;
 4/16=2,20=11,22=1001,24=3/2;
 7/44=-1/16;
 1/6=10,10=10,14=-1,18=4000020,19=15,64=103/3(-4);
 2/9=110/2;
 99//99;
 ------------------
 Amber optimization
 ------------------
 Symbolic Z-matrix:
 Charge = -6 Multiplicity = 1
 N-N3-0.141400(PDBName=N,ResName=ALA,ResNum=1_A) 0     12.802    23.995    104.246  L 
 C-CT-0.096200(PDBName=CA,ResName=ALA,ResNum=1_A) 0     11.779    23.426    105.1    L 
 C-C-0.616300(PDBName=C,ResName=ALA,ResNum=1_A) 0     12.37     22.947    106.418  L 
 O-O--0.572200(PDBName=O,ResName=ALA,ResNum=1_A) 0     11.748    23.143    107.495  L 
 C-CT--0.059700(PDBName=CB,ResName=ALA,ResNum=1_A) 0     11.106    22.233    104.43   L 
 H-H-0.199700(PDBName=H2,ResName=ALA,ResNum=1_A) 0     13.365    23.264    103.85   L 
 H-H-0.199700(PDBName=H3,ResName=ALA,ResNum=1_A) 0     12.377    24.518    103.501  L 
 H-H-0.199700(PDBName=H1,ResName=ALA,ResNum=1_A) 0     13.393    24.609    104.779  L 
 H-HP-0.088900(PDBName=HA,ResName=ALA,ResNum=1_A) 0     11.086    24.133    105.298  L 
 H-HC-0.030000(PDBName=HB1,ResName=ALA,ResNum=1_A) 0     10.489    22.558    103.715  L 
 H-HC-0.030000(PDBName=HB3,ResName=ALA,ResNum=1_A) 0     11.803    21.642    104.026  L 
 H-HC-0.030000(PDBName=HB2,ResName=ALA,ResNum=1_A) 0     10.586    21.719    105.111  L 
 N-N--0.415700(PDBName=N,ResName=SER,ResNum=2_A) 0     13.667    22.255    106.434  L 
 C-CT--0.024900(PDBName=CA,ResName=SER,ResNum=2_A) 0     14.24     22.316    107.791  L 
 C-C-0.597300(PDBName=C,ResName=SER,ResNum=2_A) 0     15.724    22.642    107.73   L 
 O-O--0.567900(PDBName=O,ResName=SER,ResNum=2_A) 0     16.364    22.544    106.681  L 
 C-CT-0.211700(PDBName=CB,ResName=SER,ResNum=2_A) 0     14.046    20.958    108.489  L 
 O-OH--0.654600(PDBName=OG,ResName=SER,ResNum=2_A) 0     14.962    20.004    107.978  L 
 H-H-0.271900(PDBName=H,ResName=SER,ResNum=2_A) 0     13.959    21.881    105.635  L 
 H-H1-0.084300(PDBName=HA,ResName=SER,ResNum=2_A) 0     13.776    23.056    108.285  L 
 H-H1-0.035200(PDBName=HB3,ResName=SER,ResNum=2_A) 0     13.12     20.645    108.319  L 
 H-H1-0.035200(PDBName=HB2,ResName=SER,ResNum=2_A) 0     14.205    21.076    109.461  L 
 H-HO-0.427500(PDBName=HG,ResName=SER,ResNum=2_A) 0     15.537    19.664    108.721  L 
 N-N--0.347900(PDBName=N,ResName=LYS,ResNum=3_A) 0     16.273    22.99     108.876  L 
 C-CT--0.240000(PDBName=CA,ResName=LYS,ResNum=3_A) 0     17.709    23.229    109.026  L 
 C-C-0.734100(PDBName=C,ResName=LYS,ResNum=3_A) 0     18.548    21.979    108.694  L 
 O-O--0.589400(PDBName=O,ResName=LYS,ResNum=3_A) 0     19.575    22.049    108.005  L 
 C-CT--0.009400(PDBName=CB,ResName=LYS,ResNum=3_A) 0     17.985    23.63     110.476  L 
 C-CT-0.018700(PDBName=CG,ResName=LYS,ResNum=3_A) 0     18.641    24.946    110.609  L 
 C-CT--0.047900(PDBName=CD,ResName=LYS,ResNum=3_A) 0     20.153    24.812    110.71   L 
 C-CT--0.014300(PDBName=CE,ResName=LYS,ResNum=3_A) 0     20.637    25.295    112.061  L 
 N-N3--0.385400(PDBName=NZ,ResName=LYS,ResNum=3_A) 0     19.641    24.939    113.117  L 
 H-H1-0.142600(PDBName=HA,ResName=LYS,ResNum=3_A) 0     17.985    23.971    108.398  L 
 H-HP-0.113500(PDBName=HE2,ResName=LYS,ResNum=3_A) 0     21.507    24.86     112.274  L 
 H-HP-0.113500(PDBName=HE3,ResName=LYS,ResNum=3_A) 0     20.746    26.285    112.038  L 
 H-HC-0.010300(PDBName=HG2,ResName=LYS,ResNum=3_A) 0     18.431    25.52     109.81   L 
 H-HC-0.010300(PDBName=HG3,ResName=LYS,ResNum=3_A) 0     18.313    25.416    111.435  L 
 H-H-0.340000(PDBName=HZ1,ResName=LYS,ResNum=3_A) 0     19.854    24.032    113.477  L 
 H-H-0.340000(PDBName=HZ3,ResName=LYS,ResNum=3_A) 0     19.687    25.613    113.853  L 
 H-H-0.340000(PDBName=HZ2,ResName=LYS,ResNum=3_A) 0     18.726    24.938    112.718  L 
 H-HC-0.062100(PDBName=HD3,ResName=LYS,ResNum=3_A) 0     20.572    25.366    110.003  L 
 H-HC-0.062100(PDBName=HD2,ResName=LYS,ResNum=3_A) 0     20.397    23.857    110.605  L 
 H-H-0.274700(PDBName=H,ResName=LYS,ResNum=3_A) 0     15.601    23.083    109.673  L 
 H-HC-0.036200(PDBName=HB3,ResName=LYS,ResNum=3_A) 0     18.569    22.923    110.877  L 
 H-HC-0.036200(PDBName=HB2,ResName=LYS,ResNum=3_A) 0     17.107    23.644    110.956  L 
 N-N--0.415700(PDBName=N,ResName=GLY,ResNum=4_A) 0     18.11     20.84     109.21   L 
 C-CT--0.025200(PDBName=CA,ResName=GLY,ResNum=4_A) 0     18.815    19.584    109.003  L 
 C-C-0.597300(PDBName=C,ResName=GLY,ResNum=4_A) 0     18.842    19.144    107.549  L 
 O-O--0.567900(PDBName=O,ResName=GLY,ResNum=4_A) 0     19.748    18.425    107.138  L 
 H-H-0.271900(PDBName=H,ResName=GLY,ResNum=4_A) 0     17.234    20.92     109.766  L 
 H-H1-0.069800(PDBName=HA2,ResName=GLY,ResNum=4_A) 0     19.77     19.676    109.341  L 
 H-H1-0.069800(PDBName=HA3,ResName=GLY,ResNum=4_A) 0     18.376    18.857    109.563  L 
 N-N--0.516300(PDBName=N,ResName=GLU,ResNum=5_A) 0     17.854    19.584    106.766  L 
 C-CT-0.039700(PDBName=CA,ResName=GLU,ResNum=5_A) 0     17.766    19.322    105.323  L 
 C-C-0.536600(PDBName=C,ResName=GLU,ResNum=5_A) 0     19.062    19.722    104.597  L 
 O-O--0.581900(PDBName=O,ResName=GLU,ResNum=5_A) 0     19.519    19.051    103.662  L 
 C-CT-0.056000(PDBName=CB,ResName=GLU,ResNum=5_A) 0     16.535    20.091    104.781  L 
 C-CT-0.013600(PDBName=CG,ResName=GLU,ResNum=5_A) 0     16.107    19.838    103.349  L 
 C-C-0.805400(PDBName=CD,ResName=GLU,ResNum=5_A) 0     15.118    20.899    102.849  L 
 O-O2--0.818800(PDBName=OE1,ResName=GLU,ResNum=5_A) 0     15.403    21.525    101.794  L 
 O-O2--0.818800(PDBName=OE2,ResName=GLU,ResNum=5_A) 0     14.065    21.11     103.51   L 
 H-HC--0.042500(PDBName=HG2,ResName=GLU,ResNum=5_A) 0     16.896    19.885    102.772  L 
 H-H1-0.110500(PDBName=HA,ResName=GLU,ResNum=5_A) 0     17.588    18.343    105.168  L 
 H-HC--0.042500(PDBName=HG3,ResName=GLU,ResNum=5_A) 0     15.649    18.974    103.304  L 
 H-H-0.293600(PDBName=H,ResName=GLU,ResNum=5_A) 0     17.127    20.147    107.279  L 
 H-HC--0.017300(PDBName=HB3,ResName=GLU,ResNum=5_A) 0     16.74     21.066    104.87   L 
 H-HC--0.017300(PDBName=HB2,ResName=GLU,ResNum=5_A) 0     15.764    19.858    105.375  L 
 N-N--0.516300(PDBName=N,ResName=GLU,ResNum=6_A) 0     19.672    20.812    105.044  L 
 C-CT-0.039700(PDBName=CA,ResName=GLU,ResNum=6_A) 0     20.885    21.351    104.426  L 
 C-C-0.536600(PDBName=C,ResName=GLU,ResNum=6_A) 0     22.07     20.402    104.509  L 
 O-O--0.581900(PDBName=O,ResName=GLU,ResNum=6_A) 0     22.963    20.435    103.668  L 
 C-CT-0.056000(PDBName=CB,ResName=GLU,ResNum=6_A) 0     21.283    22.659    105.112  L 
 C-CT-0.013600(PDBName=CG,ResName=GLU,ResNum=6_A) 0     20.276    23.76     104.922  L 
 C-C-0.805400(PDBName=CD,ResName=GLU,ResNum=6_A) 0     20.635    25.03     105.671  L 
 O-O2--0.818800(PDBName=OE1,ResName=GLU,ResNum=6_A) 0     21.845    25.303    105.872  L 
 O-O2--0.818800(PDBName=OE2,ResName=GLU,ResNum=6_A) 0     19.692    25.754    106.064  L 
 H-HC--0.042500(PDBName=HG2,ResName=GLU,ResNum=6_A) 0     20.233    23.987    103.964  L 
 H-H1-0.110500(PDBName=HA,ResName=GLU,ResNum=6_A) 0     20.695    21.57     103.452  L 
 H-HC--0.042500(PDBName=HG3,ResName=GLU,ResNum=6_A) 0     19.404    23.455    105.265  L 
 H-H-0.293600(PDBName=H,ResName=GLU,ResNum=6_A) 0     19.215    21.255    105.874  L 
 H-HC--0.017300(PDBName=HB3,ResName=GLU,ResNum=6_A) 0     22.134    22.952    104.719  L 
 H-HC--0.017300(PDBName=HB2,ResName=GLU,ResNum=6_A) 0     21.358    22.476    106.075  L 
 N-N--0.415700(PDBName=N,ResName=LEU,ResNum=7_A) 0     22.082    19.551    105.532  L 
 C-CT--0.051800(PDBName=CA,ResName=LEU,ResNum=7_A) 0     23.143    18.549    105.686  L 
 C-C-0.597300(PDBName=C,ResName=LEU,ResNum=7_A) 0     23.148    17.474    104.595  L 
 O-O--0.567900(PDBName=O,ResName=LEU,ResNum=7_A) 0     24.129    16.735    104.468  L 
 C-CT--0.110200(PDBName=CB,ResName=LEU,ResNum=7_A) 0     23.057    17.897    107.07   L 
 C-CT-0.353100(PDBName=CG,ResName=LEU,ResNum=7_A) 0     23.151    18.871    108.254  L 
 C-CT--0.412100(PDBName=CD1,ResName=LEU,ResNum=7_A) 0     22.807    18.174    109.564  L 
 C-CT--0.412100(PDBName=CD2,ResName=LEU,ResNum=7_A) 0     24.547    19.472    108.335  L 
 H-HC-0.100000(PDBName=HD22,ResName=LEU,ResNum=7_A) 0     24.748    19.967    107.49   L 
 H-HC-0.100000(PDBName=HD23,ResName=LEU,ResNum=7_A) 0     24.595    20.104    109.109  L 
 H-HC-0.100000(PDBName=HD21,ResName=LEU,ResNum=7_A) 0     25.219    18.742    108.46   L 
 H-H-0.271900(PDBName=H,ResName=LEU,ResNum=7_A) 0     21.295    19.653    106.198  L 
 H-HC-0.100000(PDBName=HD13,ResName=LEU,ResNum=7_A) 0     23.445    17.42     109.719  L 
 H-HC-0.100000(PDBName=HD12,ResName=LEU,ResNum=7_A) 0     22.875    18.828    110.318  L 
 H-HC-0.100000(PDBName=HD11,ResName=LEU,ResNum=7_A) 0     21.874    17.816    109.517  L 
 H-H1-0.092200(PDBName=HA,ResName=LEU,ResNum=7_A) 0     24.04     19.029    105.662  L 
 H-HC--0.036100(PDBName=HG,ResName=LEU,ResNum=7_A) 0     22.513    19.626    108.101  L 
 H-HC-0.045700(PDBName=HB3,ResName=LEU,ResNum=7_A) 0     23.806    17.256    107.154  L 
 H-HC-0.045700(PDBName=HB2,ResName=LEU,ResNum=7_A) 0     22.183    17.435    107.137  L 
 N-N--0.415700(PDBName=N,ResName=PHE,ResNum=8_A) 0     22.084    17.393    103.799  L 
 C-CT--0.002400(PDBName=CA,ResName=PHE,ResNum=8_A) 0     21.925    16.316    102.809  L 
 C-C-0.597300(PDBName=C,ResName=PHE,ResNum=8_A) 0     21.932    16.778    101.35   L 
 O-O--0.567900(PDBName=O,ResName=PHE,ResNum=8_A) 0     21.557    16.01     100.471  L 
 C-CT--0.034300(PDBName=CB,ResName=PHE,ResNum=8_A) 0     20.627    15.544    103.086  L 
 C-CA-0.011800(PDBName=CG,ResName=PHE,ResNum=8_A) 0     20.647    14.817    104.386  L 
 C-CA--0.125600(PDBName=CD1,ResName=PHE,ResNum=8_A) 0     21.078    13.492    104.446  L 
 C-CA--0.125600(PDBName=CD2,ResName=PHE,ResNum=8_A) 0     20.287    15.462    105.554  L 
 C-CA--0.170400(PDBName=CE1,ResName=PHE,ResNum=8_A) 0     21.102    12.826    105.648  L 
 C-CA--0.170400(PDBName=CE2,ResName=PHE,ResNum=8_A) 0     20.315    14.818    106.756  L 
 C-CA--0.107200(PDBName=CZ,ResName=PHE,ResNum=8_A) 0     20.742    13.504    106.818  L 
 H-HA-0.129700(PDBName=HZ,ResName=PHE,ResNum=8_A) 0     20.798    13.028    107.696  L 
 H-H1-0.097800(PDBName=HA,ResName=PHE,ResNum=8_A) 0     22.726    15.697    102.923  L 
 H-HA-0.143000(PDBName=HE1,ResName=PHE,ResNum=8_A) 0     21.374    11.861    105.691  L 
 H-HA-0.143000(PDBName=HE2,ResName=PHE,ResNum=8_A) 0     20.023    15.298    107.602  L 
 H-H-0.271900(PDBName=H,ResName=PHE,ResNum=8_A) 0     21.38     18.147    103.933  L 
 H-HA-0.133000(PDBName=HD2,ResName=PHE,ResNum=8_A) 0     20.       16.428    105.509  L 
 H-HA-0.133000(PDBName=HD1,ResName=PHE,ResNum=8_A) 0     21.369    13.032    103.615  L 
 H-HC-0.029500(PDBName=HB3,ResName=PHE,ResNum=8_A) 0     20.513    14.886    102.36   L 
 H-HC-0.029500(PDBName=HB2,ResName=PHE,ResNum=8_A) 0     19.89     16.199    103.104  L 
 N-N--0.415700(PDBName=N,ResName=THR,ResNum=9_A) 0     22.351    18.013    101.076  L 
 C-CT--0.038900(PDBName=CA,ResName=THR,ResNum=9_A) 0     22.359    18.496    99.681   L 
 C-C-0.597300(PDBName=C,ResName=THR,ResNum=9_A) 0     23.404    17.818    98.772   L 
 O-O--0.567900(PDBName=O,ResName=THR,ResNum=9_A) 0     23.311    17.901    97.552   L 
 C-CT-0.365400(PDBName=CB,ResName=THR,ResNum=9_A) 0     22.589    20.012    99.648   L 
 O-OH--0.676100(PDBName=OG1,ResName=THR,ResNum=9_A) 0     23.755    20.324    100.4    L 
 C-CT--0.243800(PDBName=CG2,ResName=THR,ResNum=9_A) 0     21.494    20.753    100.368  L 
 H-H1-0.100700(PDBName=HA,ResName=THR,ResNum=9_A) 0     21.438    18.323    99.282   L 
 H-HC-0.064200(PDBName=HG22,ResName=THR,ResNum=9_A) 0     20.997    21.348    99.727   L 
 H-HC-0.064200(PDBName=HG21,ResName=THR,ResNum=9_A) 0     20.843    20.103    100.775  L 
 H-H-0.271900(PDBName=H,ResName=THR,ResNum=9_A) 0     22.653    18.573    101.876  L 
 H-H1-0.004300(PDBName=HB,ResName=THR,ResNum=9_A) 0     22.743    20.3      98.681   L 
 H-HC-0.064200(PDBName=HG23,ResName=THR,ResNum=9_A) 0     21.882    21.322    101.101  L 
 H-HO-0.410200(PDBName=HG1,ResName=THR,ResNum=9_A) 0     23.543    20.36     101.384  L 
 N-N--0.415700(PDBName=N,ResName=GLY,ResNum=10_A) 0     24.413    17.188    99.348   L 
 C-CT--0.025200(PDBName=CA,ResName=GLY,ResNum=10_A) 0     25.437    16.516    98.56    L 
 C-C-0.597300(PDBName=C,ResName=GLY,ResNum=10_A) 0     25.58     15.079    99.017   L 
 O-O--0.567900(PDBName=O,ResName=GLY,ResNum=10_A) 0     24.68     14.542    99.655   L 
 H-H-0.271900(PDBName=H,ResName=GLY,ResNum=10_A) 0     24.414    17.212    100.386  L 
 H-H1-0.069800(PDBName=HA2,ResName=GLY,ResNum=10_A) 0     25.18     16.536    97.59    L 
 H-H1-0.069800(PDBName=HA3,ResName=GLY,ResNum=10_A) 0     26.313    16.993    98.672   L 
 N-N--0.415700(PDBName=N,ResName=VAL,ResNum=11_A) 0     26.715    14.472    98.686   L 
 C-CT--0.087500(PDBName=CA,ResName=VAL,ResNum=11_A) 0     27.021    13.089    99.061   L 
 C-C-0.597300(PDBName=C,ResName=VAL,ResNum=11_A) 0     27.487    13.047    100.516  L 
 O-O--0.567900(PDBName=O,ResName=VAL,ResNum=11_A) 0     28.419    13.717    100.882  L 
 C-CT-0.298500(PDBName=CB,ResName=VAL,ResNum=11_A) 0     28.105    12.487    98.132   L 
 C-CT--0.319200(PDBName=CG1,ResName=VAL,ResNum=11_A) 0     28.498    11.091    98.579   L 
 C-CT--0.319200(PDBName=CG2,ResName=VAL,ResNum=11_A) 0     27.614    12.442    96.707   L 
 H-H1-0.096900(PDBName=HA,ResName=VAL,ResNum=11_A) 0     26.18     12.553    98.99    L 
 H-HC-0.079100(PDBName=HG11,ResName=VAL,ResNum=11_A) 0     29.456    11.088    98.868   L 
 H-HC-0.079100(PDBName=HG21,ResName=VAL,ResNum=11_A) 0     28.357    12.701    96.086   L 
 H-HC--0.029700(PDBName=HB,ResName=VAL,ResNum=11_A) 0     28.916    13.062    98.209   L 
 H-HC-0.079100(PDBName=HG12,ResName=VAL,ResNum=11_A) 0     27.92     10.808    99.346   L 
 H-HC-0.079100(PDBName=HG13,ResName=VAL,ResNum=11_A) 0     28.379    10.449    97.821   L 
 H-H-0.271900(PDBName=H,ResName=VAL,ResNum=11_A) 0     27.376    15.066    98.132   L 
 H-HC-0.079100(PDBName=HG23,ResName=VAL,ResNum=11_A) 0     27.306    11.514    96.486   L 
 H-HC-0.079100(PDBName=HG22,ResName=VAL,ResNum=11_A) 0     26.85     13.08     96.593   L 
 N-N--0.415700(PDBName=N,ResName=VAL,ResNum=12_A) 0     26.836    12.235    101.341  L 
 C-CT--0.087500(PDBName=CA,ResName=VAL,ResNum=12_A) 0     27.176    12.112    102.752  L 
 C-C-0.597300(PDBName=C,ResName=VAL,ResNum=12_A) 0     27.692    10.694    103.001  L 
 O-O--0.567900(PDBName=O,ResName=VAL,ResNum=12_A) 0     27.006    9.752     102.631  L 
 C-CT-0.298500(PDBName=CB,ResName=VAL,ResNum=12_A) 0     25.912    12.323    103.592  L 
 C-CT--0.319200(PDBName=CG1,ResName=VAL,ResNum=12_A) 0     26.209    12.137    105.065  L 
 C-CT--0.319200(PDBName=CG2,ResName=VAL,ResNum=12_A) 0     25.319    13.708    103.3    L 
 H-H1-0.096900(PDBName=HA,ResName=VAL,ResNum=12_A) 0     27.916    12.747    102.955  L 
 H-HC-0.079100(PDBName=HG11,ResName=VAL,ResNum=12_A) 0     25.602    11.438    105.447  L 
 H-HC-0.079100(PDBName=HG21,ResName=VAL,ResNum=12_A) 0     25.753    14.08     102.482  L 
 H-HC--0.029700(PDBName=HB,ResName=VAL,ResNum=12_A) 0     25.254    11.619    103.335  L 
 H-HC-0.079100(PDBName=HG12,ResName=VAL,ResNum=12_A) 0     27.16     11.848    105.184  L 
 H-HC-0.079100(PDBName=HG13,ResName=VAL,ResNum=12_A) 0     26.064    13.       105.551  L 
 H-H-0.271900(PDBName=H,ResName=VAL,ResNum=12_A) 0     26.062    11.694    100.892  L 
 H-HC-0.079100(PDBName=HG23,ResName=VAL,ResNum=12_A) 0     24.337    13.615    103.153  L 
 H-HC-0.079100(PDBName=HG22,ResName=VAL,ResNum=12_A) 0     25.493    14.305    104.08   L 
 N-N--0.254800(PDBName=N,ResName=PRO,ResNum=13_A) 0     28.855    10.526    103.64   L 
 C-CT--0.026600(PDBName=CA,ResName=PRO,ResNum=13_A) 0     29.323    9.169     104.019  L 
 C-C-0.589600(PDBName=C,ResName=PRO,ResNum=13_A) 0     28.437    8.549     105.098  L 
 O-O--0.574800(PDBName=O,ResName=PRO,ResNum=13_A) 0     27.914    9.269     105.95   L 
 C-CT--0.007000(PDBName=CB,ResName=PRO,ResNum=13_A) 0     30.744    9.379     104.592  L 
 C-CT-0.018900(PDBName=CG,ResName=PRO,ResNum=13_A) 0     31.006    10.875    104.607  L 
 C-CT-0.019200(PDBName=CD,ResName=PRO,ResNum=13_A) 0     29.763    11.594    104.111  L 
 H-HC-0.021300(PDBName=HG2,ResName=PRO,ResNum=13_A) 0     31.24     11.174    105.548  L 
 H-H1-0.064100(PDBName=HA,ResName=PRO,ResNum=13_A) 0     29.369    8.577     103.206  L 
 H-H1-0.039100(PDBName=HD3,ResName=PRO,ResNum=13_A) 0     29.986    12.224    103.358  L 
 H-H1-0.039100(PDBName=HD2,ResName=PRO,ResNum=13_A) 0     29.331    12.121    104.85   L 
 H-HC-0.021300(PDBName=HG3,ResName=PRO,ResNum=13_A) 0     31.803    11.09     104.017  L 
 H-HC-0.025300(PDBName=HB3,ResName=PRO,ResNum=13_A) 0     31.429    8.908     104.02   L 
 H-HC-0.025300(PDBName=HB2,ResName=PRO,ResNum=13_A) 0     30.807    9.002     105.527  L 
 N-N--0.415700(PDBName=N,ResName=ILE,ResNum=14_A) 0     28.281    7.227     105.04   L 
 C-CT--0.059700(PDBName=CA,ResName=ILE,ResNum=14_A) 0     27.46     6.472     105.949  L 
 C-C-0.597300(PDBName=C,ResName=ILE,ResNum=14_A) 0     28.293    5.366     106.591  L 
 O-O--0.567900(PDBName=O,ResName=ILE,ResNum=14_A) 0     29.126    4.741     105.922  L 
 C-CT-0.130300(PDBName=CB,ResName=ILE,ResNum=14_A) 0     26.283    5.812     105.191  L 
 C-CT--0.043000(PDBName=CG1,ResName=ILE,ResNum=14_A) 0     25.412    6.879     104.5    L 
 C-CT--0.320400(PDBName=CG2,ResName=ILE,ResNum=14_A) 0     25.45     4.923     106.153  L 
 C-CT--0.066000(PDBName=CD1,ResName=ILE,ResNum=14_A) 0     24.44     6.296     103.497  L 
 H-H1-0.086900(PDBName=HA,ResName=ILE,ResNum=14_A) 0     27.199    7.093     106.69   L 
 H-HC-0.088200(PDBName=HG22,ResName=ILE,ResNum=14_A) 0     24.744    4.47      105.621  L 
 H-HC-0.088200(PDBName=HG21,ResName=ILE,ResNum=14_A) 0     26.062    4.258     106.566  L 
 H-HC-0.018700(PDBName=HB,ResName=ILE,ResNum=14_A) 0     26.664    5.225     104.486  L 
 H-HC-0.023600(PDBName=HG12,ResName=ILE,ResNum=14_A) 0     24.905    7.368     105.202  L 
 H-HC-0.023600(PDBName=HG13,ResName=ILE,ResNum=14_A) 0     26.019    7.514     104.031  L 
 H-HC-0.018600(PDBName=HD13,ResName=ILE,ResNum=14_A) 0     23.827    5.659     103.962  L 
 H-H-0.271900(PDBName=H,ResName=ILE,ResNum=14_A) 0     28.826    6.779     104.251  L 
 H-HC-0.018600(PDBName=HD12,ResName=ILE,ResNum=14_A) 0     23.907    7.034     103.085  L 
 H-HC-0.088200(PDBName=HG23,ResName=ILE,ResNum=14_A) 0     25.048    5.511     106.845  L 
 H-HC-0.018600(PDBName=HD11,ResName=ILE,ResNum=14_A) 0     24.948    5.813     102.786  L 
 N-N--0.415700(PDBName=N,ResName=LEU,ResNum=15_A) 0     28.078    5.139     107.878  L 
 C-CT--0.051800(PDBName=CA,ResName=LEU,ResNum=15_A) 0     28.571    3.915     108.543  L 
 C-C-0.597300(PDBName=C,ResName=LEU,ResNum=15_A) 0     27.387    3.267     109.228  L 
 O-O--0.567900(PDBName=O,ResName=LEU,ResNum=15_A) 0     26.482    3.97      109.682  L 
 C-CT--0.110200(PDBName=CB,ResName=LEU,ResNum=15_A) 0     29.613    4.256     109.587  L 
 C-CT-0.353100(PDBName=CG,ResName=LEU,ResNum=15_A) 0     30.895    3.416     109.61   L 
 C-CT--0.412100(PDBName=CD1,ResName=LEU,ResNum=15_A) 0     30.624    1.915     109.797  L 
 C-CT--0.412100(PDBName=CD2,ResName=LEU,ResNum=15_A) 0     31.704    3.667     108.351  L 
 H-HC-0.100000(PDBName=HD22,ResName=LEU,ResNum=15_A) 0     31.949    4.636     108.295  L 
 H-HC-0.100000(PDBName=HD23,ResName=LEU,ResNum=15_A) 0     32.539    3.116     108.372  L 
 H-HC-0.100000(PDBName=HD21,ResName=LEU,ResNum=15_A) 0     31.163    3.416     107.547  L 
 H-H-0.271900(PDBName=H,ResName=LEU,ResNum=15_A) 0     27.545    5.874     108.377  L 
 H-HC-0.100000(PDBName=HD13,ResName=LEU,ResNum=15_A) 0     30.057    1.588     109.043  L 
 H-HC-0.100000(PDBName=HD12,ResName=LEU,ResNum=15_A) 0     31.493    1.424     109.804  L 
 H-HC-0.100000(PDBName=HD11,ResName=LEU,ResNum=15_A) 0     30.149    1.774     110.663  L 
 H-H1-0.092200(PDBName=HA,ResName=LEU,ResNum=15_A) 0     28.919    3.302     107.846  L 
 H-HC--0.036100(PDBName=HG,ResName=LEU,ResNum=15_A) 0     31.483    3.737     110.363  L 
 H-HC-0.045700(PDBName=HB3,ResName=LEU,ResNum=15_A) 0     29.19     4.168     110.492  L 
 H-HC-0.045700(PDBName=HB2,ResName=LEU,ResNum=15_A) 0     29.893    5.21      109.45   L 
 N-N--0.415700(PDBName=N,ResName=VAL,ResNum=16_A) 0     27.402    1.938     109.255  L 
 C-CT--0.087500(PDBName=CA,ResName=VAL,ResNum=16_A) 0     26.38     1.108     109.883  L 
 C-C-0.597300(PDBName=C,ResName=VAL,ResNum=16_A) 0     27.111    0.083     110.737  L 
 O-O--0.567900(PDBName=O,ResName=VAL,ResNum=16_A) 0     28.106   -0.512     110.297  L 
 C-CT-0.298500(PDBName=CB,ResName=VAL,ResNum=16_A) 0     25.522    0.377     108.823  L 
 C-CT--0.319200(PDBName=CG1,ResName=VAL,ResNum=16_A) 0     24.403   -0.439     109.463  L 
 C-CT--0.319200(PDBName=CG2,ResName=VAL,ResNum=16_A) 0     24.97     1.388     107.823  L 
 H-H1-0.096900(PDBName=HA,ResName=VAL,ResNum=16_A) 0     25.838    1.681     110.483  L 
 H-HC-0.079100(PDBName=HG11,ResName=VAL,ResNum=16_A) 0     23.527    0.013     109.3    L 
 H-HC-0.079100(PDBName=HG21,ResName=VAL,ResNum=16_A) 0     25.41     1.247     106.937  L 
 H-HC--0.029700(PDBName=HB,ResName=VAL,ResNum=16_A) 0     26.118   -0.268     108.346  L 
 H-HC-0.079100(PDBName=HG12,ResName=VAL,ResNum=16_A) 0     24.387   -1.353     109.06   L 
 H-HC-0.079100(PDBName=HG13,ResName=VAL,ResNum=16_A) 0     24.564   -0.51      110.447  L 
 H-H-0.271900(PDBName=H,ResName=VAL,ResNum=16_A) 0     28.245    1.519     108.767  L 
 H-HC-0.079100(PDBName=HG23,ResName=VAL,ResNum=16_A) 0     23.983    1.257     107.735  L 
 H-HC-0.079100(PDBName=HG22,ResName=VAL,ResNum=16_A) 0     25.16     2.312     108.152  L 
 N-N--0.516300(PDBName=N,ResName=GLU,ResNum=17_A) 0     26.652   -0.093     111.973  L 
 C-CT-0.039700(PDBName=CA,ResName=GLU,ResNum=17_A) 0     27.161   -1.15      112.849  L 
 C-C-0.536600(PDBName=C,ResName=GLU,ResNum=17_A) 0     25.949   -1.849     113.429  L 
 O-O--0.581900(PDBName=O,ResName=GLU,ResNum=17_A) 0     25.004   -1.196     113.882  L 
 C-CT-0.056000(PDBName=CB,ResName=GLU,ResNum=17_A) 0     28.004   -0.551     113.982  L 
 C-CT-0.013600(PDBName=CG,ResName=GLU,ResNum=17_A) 0     29.223    0.244     113.509  L 
 C-C-0.805400(PDBName=CD,ResName=GLU,ResNum=17_A) 0     30.328   -0.611     112.868  L 
 O-O2--0.818800(PDBName=OE1,ResName=GLU,ResNum=17_A) 0     30.287   -1.867     112.962  L 
 O-O2--0.818800(PDBName=OE2,ResName=GLU,ResNum=17_A) 0     31.261   -0.014     112.259  L 
 H-HC--0.042500(PDBName=HG2,ResName=GLU,ResNum=17_A) 0     28.924    0.891     112.828  L 
 H-H1-0.110500(PDBName=HA,ResName=GLU,ResNum=17_A) 0     27.703   -1.789     112.323  L 
 H-HC--0.042500(PDBName=HG3,ResName=GLU,ResNum=17_A) 0     29.622    0.695     114.29   L 
 H-H-0.293600(PDBName=H,ResName=GLU,ResNum=17_A) 0     25.909    0.576     112.261  L 
 H-HC--0.017300(PDBName=HB3,ResName=GLU,ResNum=17_A) 0     28.333   -1.294     114.537  L 
 H-HC--0.017300(PDBName=HB2,ResName=GLU,ResNum=17_A) 0     27.429    0.065     114.49   L 
 N-N--0.415700(PDBName=N,ResName=LEU,ResNum=18_A) 0     25.96    -3.178     113.377  L 
 C-CT--0.051800(PDBName=CA,ResName=LEU,ResNum=18_A) 0     24.907   -3.985     113.931  L 
 C-C-0.597300(PDBName=C,ResName=LEU,ResNum=18_A) 0     25.525   -5.011     114.86   L 
 O-O--0.567900(PDBName=O,ResName=LEU,ResNum=18_A) 0     26.532   -5.643     114.518  L 
 C-CT--0.110200(PDBName=CB,ResName=LEU,ResNum=18_A) 0     24.14    -4.717     112.834  L 
 C-CT-0.353100(PDBName=CG,ResName=LEU,ResNum=18_A) 0     22.946   -5.608     113.211  L 
 C-CT--0.412100(PDBName=CD1,ResName=LEU,ResNum=18_A) 0     23.375   -7.019     113.552  L 
 C-CT--0.412100(PDBName=CD2,ResName=LEU,ResNum=18_A) 0     22.12    -5.059     114.305  L 
 H-HC-0.100000(PDBName=HD22,ResName=LEU,ResNum=18_A) 0     21.74    -4.161     114.05   L 
 H-HC-0.100000(PDBName=HD23,ResName=LEU,ResNum=18_A) 0     21.351   -5.676     114.517  L 
 H-HC-0.100000(PDBName=HD21,ResName=LEU,ResNum=18_A) 0     22.668   -4.942     115.143  L 
 H-H-0.271900(PDBName=H,ResName=LEU,ResNum=18_A) 0     26.804   -3.576     112.897  L 
 H-HC-0.100000(PDBName=HD13,ResName=LEU,ResNum=18_A) 0     24.007   -7.003     114.329  L 
 H-HC-0.100000(PDBName=HD12,ResName=LEU,ResNum=18_A) 0     22.572   -7.569     113.792  L 
 H-HC-0.100000(PDBName=HD11,ResName=LEU,ResNum=18_A) 0     23.834   -7.433     112.764  L 
 H-H1-0.092200(PDBName=HA,ResName=LEU,ResNum=18_A) 0     24.294   -3.404     114.466  L 
 H-HC--0.036100(PDBName=HG,ResName=LEU,ResNum=18_A) 0     22.305   -5.628     112.436  L 
 H-HC-0.045700(PDBName=HB3,ResName=LEU,ResNum=18_A) 0     24.796   -5.303     112.338  L 
 H-HC-0.045700(PDBName=HB2,ResName=LEU,ResNum=18_A) 0     23.792   -4.023     112.186  L 
 N-N--0.516300(PDBName=N,ResName=ASP,ResNum=19_A) 0     24.932   -5.143     116.032  L 
 C-CT-0.038100(PDBName=CA,ResName=ASP,ResNum=19_A) 0     25.233   -6.261     116.932  L 
 C-C-0.536600(PDBName=C,ResName=ASP,ResNum=19_A) 0     23.933   -7.022     117.058  L 
 O-O--0.581900(PDBName=O,ResName=ASP,ResNum=19_A) 0     22.906   -6.439     117.41   L 
 C-CT--0.030300(PDBName=CB,ResName=ASP,ResNum=19_A) 0     25.678   -5.729     118.263  L 
 C-C-0.799400(PDBName=CG,ResName=ASP,ResNum=19_A) 0     27.161   -5.26      118.255  L 
 O-O2--0.801400(PDBName=OD1,ResName=ASP,ResNum=19_A) 0     28.083   -5.964     117.725  L 
 O-O2--0.801400(PDBName=OD2,ResName=ASP,ResNum=19_A) 0     27.464   -4.167     118.762  L 
 H-H-0.293600(PDBName=H,ResName=ASP,ResNum=19_A) 0     24.242   -4.4       116.265  L 
 H-H1-0.088000(PDBName=HA,ResName=ASP,ResNum=19_A) 0     25.876   -6.845     116.464  L 
 H-HC--0.012200(PDBName=HB3,ResName=ASP,ResNum=19_A) 0     25.598   -6.442     118.947  L 
 H-HC--0.012200(PDBName=HB2,ResName=ASP,ResNum=19_A) 0     25.122   -4.944     118.507  L 
 N-N--0.415700(PDBName=N,ResName=GLY,ResNum=20_A) 0     23.98    -8.316     116.776  L 
 C-CT--0.025200(PDBName=CA,ResName=GLY,ResNum=20_A) 0     22.783   -9.115     116.625  L 
 C-C-0.597300(PDBName=C,ResName=GLY,ResNum=20_A) 0     22.829   -10.415    117.398  L 
 O-O--0.567900(PDBName=O,ResName=GLY,ResNum=20_A) 0     23.896   -10.956    117.668  L 
 H-H-0.271900(PDBName=H,ResName=GLY,ResNum=20_A) 0     24.945   -8.701     116.674  L 
 H-H1-0.069800(PDBName=HA2,ResName=GLY,ResNum=20_A) 0     21.975   -8.573     116.93   L 
 H-H1-0.069800(PDBName=HA3,ResName=GLY,ResNum=20_A) 0     22.636   -9.319     115.637  L 
 N-N--0.516300(PDBName=N,ResName=ASP,ResNum=21_A) 0     21.654   -10.91     117.75   L 
 C-CT-0.038100(PDBName=CA,ResName=ASP,ResNum=21_A) 0     21.527   -12.204    118.426  L 
 C-C-0.536600(PDBName=C,ResName=ASP,ResNum=21_A) 0     20.207   -12.766    118.     L 
 O-O--0.581900(PDBName=O,ResName=ASP,ResNum=21_A) 0     19.171   -12.219    118.364  L 
 C-CT--0.030300(PDBName=CB,ResName=ASP,ResNum=21_A) 0     21.558   -11.996    119.936  L 
 C-C-0.799400(PDBName=CG,ResName=ASP,ResNum=21_A) 0     21.213   -13.251    120.722  L 
 O-O2--0.801400(PDBName=OD1,ResName=ASP,ResNum=21_A) 0     20.701   -14.231    120.139  L 
 O-O2--0.801400(PDBName=OD2,ResName=ASP,ResNum=21_A) 0     21.451   -13.33     121.944  L 
 H-H-0.293600(PDBName=H,ResName=ASP,ResNum=21_A) 0     20.836   -10.313    117.511  L 
 H-H1-0.088000(PDBName=HA,ResName=ASP,ResNum=21_A) 0     22.24    -12.789    118.063  L 
 H-HC--0.012200(PDBName=HB3,ResName=ASP,ResNum=21_A) 0     20.898   -11.287    120.166  L 
 H-HC--0.012200(PDBName=HB2,ResName=ASP,ResNum=21_A) 0     22.476   -11.705    120.19   L 
 N-N--0.415700(PDBName=N,ResName=VAL,ResNum=22_A) 0     20.217   -13.816    117.194  L 
 C-CT--0.087500(PDBName=CA,ResName=VAL,ResNum=22_A) 0     18.983   -14.439    116.762  L 
 C-C-0.597300(PDBName=C,ResName=VAL,ResNum=22_A) 0     18.981   -15.869    117.287  L 
 O-O--0.567900(PDBName=O,ResName=VAL,ResNum=22_A) 0     19.855   -16.657    116.927  L 
 C-CT-0.298500(PDBName=CB,ResName=VAL,ResNum=22_A) 0     18.846   -14.381    115.229  L 
 C-CT--0.319200(PDBName=CG1,ResName=VAL,ResNum=22_A) 0     17.687   -15.223    114.73   L 
 C-CT--0.319200(PDBName=CG2,ResName=VAL,ResNum=22_A) 0     18.682   -12.937    114.783  L 
 H-H1-0.096900(PDBName=HA,ResName=VAL,ResNum=22_A) 0     18.22    -13.957    117.181  L 
 H-HC-0.079100(PDBName=HG11,ResName=VAL,ResNum=22_A) 0     16.828   -14.865    115.098  L 
 H-HC-0.079100(PDBName=HG21,ResName=VAL,ResNum=22_A) 0     19.296   -12.756    114.015  L 
 H-HC--0.029700(PDBName=HB,ResName=VAL,ResNum=22_A) 0     19.681   -14.769    114.836  L 
 H-HC-0.079100(PDBName=HG12,ResName=VAL,ResNum=22_A) 0     17.656   -15.194    113.73   L 
 H-HC-0.079100(PDBName=HG13,ResName=VAL,ResNum=22_A) 0     17.806   -16.17     115.029  L 
 H-H-0.271900(PDBName=H,ResName=VAL,ResNum=22_A) 0     21.159   -14.142    116.909  L 
 H-HC-0.079100(PDBName=HG23,ResName=VAL,ResNum=22_A) 0     17.735   -12.784    114.499  L 
 H-HC-0.079100(PDBName=HG22,ResName=VAL,ResNum=22_A) 0     18.907   -12.328    115.544  L 
 N-N--0.415700(PDBName=N,ResName=ASN,ResNum=23_A) 0     18.      -16.188    118.131  L 
 C-CT-0.014300(PDBName=CA,ResName=ASN,ResNum=23_A) 0     17.893   -17.514    118.764  L 
 C-C-0.597300(PDBName=C,ResName=ASN,ResNum=23_A) 0     19.202   -17.897    119.449  L 
 O-O--0.567900(PDBName=O,ResName=ASN,ResNum=23_A) 0     19.582   -19.067    119.436  L 
 C-CT--0.204100(PDBName=CB,ResName=ASN,ResNum=23_A) 0     17.555   -18.586    117.721  L 
 C-C-0.713000(PDBName=CG,ResName=ASN,ResNum=23_A) 0     16.054   -18.784    117.527  L 
 O-O--0.593100(PDBName=OD1,ResName=ASN,ResNum=23_A) 0     15.278   -17.82     117.588  L 
 N-N--0.919100(PDBName=ND2,ResName=ASN,ResNum=23_A) 0     15.637   -20.025    117.347  L 
 H-H1-0.104800(PDBName=HA,ResName=ASN,ResNum=23_A) 0     17.194   -17.44     119.481  L 
 H-H-0.419600(PDBName=HD22,ResName=ASN,ResNum=23_A) 0     14.668   -20.217    117.209  L 
 H-H-0.419600(PDBName=HD21,ResName=ASN,ResNum=23_A) 0     16.297   -20.782    117.349  L 
 H-H-0.271900(PDBName=H,ResName=ASN,ResNum=23_A) 0     17.314   -15.423    118.307  L 
 H-HC-0.079700(PDBName=HB3,ResName=ASN,ResNum=23_A) 0     17.951   -19.452    118.019  L 
 H-HC-0.079700(PDBName=HB2,ResName=ASN,ResNum=23_A) 0     17.952   -18.313    116.848  L 
 N-N--0.415700(PDBName=N,ResName=GLY,ResNum=24_A) 0     19.898   -16.919    120.016  L 
 C-CT--0.025200(PDBName=CA,ResName=GLY,ResNum=24_A) 0     21.183   -17.161    120.674  L 
 C-C-0.597300(PDBName=C,ResName=GLY,ResNum=24_A) 0     22.423   -17.152    119.797  L 
 O-O--0.567900(PDBName=O,ResName=GLY,ResNum=24_A) 0     23.533   -17.192    120.334  L 
 H-H-0.271900(PDBName=H,ResName=GLY,ResNum=24_A) 0     19.459   -15.978    119.954  L 
 H-H1-0.069800(PDBName=HA2,ResName=GLY,ResNum=24_A) 0     21.302   -16.464    121.428  L 
 H-H1-0.069800(PDBName=HA3,ResName=GLY,ResNum=24_A) 0     21.132   -18.066    121.171  L 
 N-N--0.415700(PDBName=N,ResName=HIS,ResNum=25_A) 0     22.242   -17.147    118.475  L 
 C-CT-0.018800(PDBName=CA,ResName=HIS,ResNum=25_A) 0     23.334   -16.972    117.51   L 
 C-C-0.597300(PDBName=C,ResName=HIS,ResNum=25_A) 0     23.783   -15.513    117.446  L 
 O-O--0.567900(PDBName=O,ResName=HIS,ResNum=25_A) 0     23.06    -14.652    116.941  L 
 C-CT--0.046200(PDBName=CB,ResName=HIS,ResNum=25_A) 0     22.909   -17.416    116.104  L 
 C-CC--0.026600(PDBName=CG,ResName=HIS,ResNum=25_A) 0     22.501   -18.85     116.011  L 
 H-H-0.271900(PDBName=H,ResName=HIS,ResNum=25_A) 0     21.245   -17.28     118.18   L 
 H-H1-0.088100(PDBName=HA,ResName=HIS,ResNum=25_A) 0     24.115   -17.53     117.812  L 
 H-HC-0.040200(PDBName=HB3,ResName=HIS,ResNum=25_A) 0     23.678   -17.262    115.47   L 
 H-HC-0.040200(PDBName=HB2,ResName=HIS,ResNum=25_A) 0     22.135   -16.844    115.804  L 
 C-CV-0.129200(PDBName=CD2,ResName=HIS,ResNum=25_A) 0     23.188   -19.947    115.61   L 
 H-H-0.364900(PDBName=HD1,ResName=HIS,ResNum=25_A) 0     20.477   -18.704    116.623  L 
 H-H5-0.139200(PDBName=HE1,ResName=HIS,ResNum=25_A) 0     20.363   -21.167    116.308  L 
 C-CR-0.205700(PDBName=CE1,ResName=HIS,ResNum=25_A) 0     21.161   -20.596    116.14   L 
 N-NA--0.381100(PDBName=ND1,ResName=HIS,ResNum=25_A) 0     21.228   -19.288    116.317  L 
 N-NB--0.572700(PDBName=NE2,ResName=HIS,ResNum=25_A) 0     22.334   -21.018    115.704  L 
 H-H4-0.114700(PDBName=HD2,ResName=HIS,ResNum=25_A) 0     24.136   -19.973    115.305  L 
 N-N--0.347900(PDBName=N,ResName=LYS,ResNum=26_A) 0     24.978   -15.258    117.955  L 
 C-CT--0.240000(PDBName=CA,ResName=LYS,ResNum=26_A) 0     25.539   -13.925    118.049  L 
 C-C-0.734100(PDBName=C,ResName=LYS,ResNum=26_A) 0     26.308   -13.599    116.772  L 
 O-O--0.589400(PDBName=O,ResName=LYS,ResNum=26_A) 0     26.979   -14.456    116.192  L 
 C-CT--0.009400(PDBName=CB,ResName=LYS,ResNum=26_A) 0     26.462   -13.832    119.261  L 
 C-CT-0.018700(PDBName=CG,ResName=LYS,ResNum=26_A) 0     25.771   -14.086    120.599  L 
 C-CT--0.047900(PDBName=CD,ResName=LYS,ResNum=26_A) 0     25.236   -12.798    121.212  L 
 C-CT--0.014300(PDBName=CE,ResName=LYS,ResNum=26_A) 0     24.619   -13.031    122.605  L 
 N-N3--0.385400(PDBName=NZ,ResName=LYS,ResNum=26_A) 0     23.492   -12.052    122.878  L 
 H-H1-0.142600(PDBName=HA,ResName=LYS,ResNum=26_A) 0     24.796   -13.259    118.153  L 
 H-HP-0.113500(PDBName=HE2,ResName=LYS,ResNum=26_A) 0     24.257   -13.958    122.647  L 
 H-HP-0.113500(PDBName=HE3,ResName=LYS,ResNum=26_A) 0     25.326   -12.908    123.296  L 
 H-HC-0.010300(PDBName=HG2,ResName=LYS,ResNum=26_A) 0     25.008   -14.717    120.455  L 
 H-HC-0.010300(PDBName=HG3,ResName=LYS,ResNum=26_A) 0     26.428   -14.497    121.231  L 
 H-H-0.340000(PDBName=HZ1,ResName=LYS,ResNum=26_A) 0     23.84    -11.322    123.457  L 
 H-H-0.340000(PDBName=HZ3,ResName=LYS,ResNum=26_A) 0     23.175   -11.684    122.01   L 
 H-H-0.340000(PDBName=HZ2,ResName=LYS,ResNum=26_A) 0     22.755   -12.537    123.338  L 
 H-HC-0.062100(PDBName=HD3,ResName=LYS,ResNum=26_A) 0     24.529   -12.424    120.62   L 
 H-HC-0.062100(PDBName=HD2,ResName=LYS,ResNum=26_A) 0     25.984   -12.149    121.31   L 
 H-H-0.274700(PDBName=H,ResName=LYS,ResNum=26_A) 0     25.491   -16.116    118.289  L 
 H-HC-0.036200(PDBName=HB3,ResName=LYS,ResNum=26_A) 0     26.858   -12.915    119.285  L 
 H-HC-0.036200(PDBName=HB2,ResName=LYS,ResNum=26_A) 0     27.19    -14.508    119.155  L 
 N-N--0.415700(PDBName=N,ResName=PHE,ResNum=27_A) 0     26.174   -12.361    116.313  L 
 C-CT--0.002400(PDBName=CA,ResName=PHE,ResNum=27_A) 0     26.844   -11.925    115.093  L 
 C-C-0.597300(PDBName=C,ResName=PHE,ResNum=27_A) 0     26.956   -10.402    115.06   L 
 O-O--0.567900(PDBName=O,ResName=PHE,ResNum=27_A) 0     26.214   -9.702     115.751  L 
 C-CT--0.034300(PDBName=CB,ResName=PHE,ResNum=27_A) 0     26.144   -12.464    113.834  L 
 C-CA-0.011800(PDBName=CG,ResName=PHE,ResNum=27_A) 0     24.734   -11.942    113.638  L 
 C-CA--0.125600(PDBName=CD1,ResName=PHE,ResNum=27_A) 0     23.665   -12.559    114.261  L 
 C-CA--0.125600(PDBName=CD2,ResName=PHE,ResNum=27_A) 0     24.486   -10.839    112.817  L 
 C-CA--0.170400(PDBName=CE1,ResName=PHE,ResNum=27_A) 0     22.353   -12.094    114.091  L 
 C-CA--0.170400(PDBName=CE2,ResName=PHE,ResNum=27_A) 0     23.169   -10.358    112.64   L 
 C-CA--0.107200(PDBName=CZ,ResName=PHE,ResNum=27_A) 0     22.108   -10.989    113.271  L 
 H-HA-0.129700(PDBName=HZ,ResName=PHE,ResNum=27_A) 0     21.175   -10.664    113.147  L 
 H-H1-0.097800(PDBName=HA,ResName=PHE,ResNum=27_A) 0     27.782   -12.283    115.128  L 
 H-HA-0.143000(PDBName=HE1,ResName=PHE,ResNum=27_A) 0     21.599   -12.56     114.559  L 
 H-HA-0.143000(PDBName=HE2,ResName=PHE,ResNum=27_A) 0     23.018   -9.553     112.049  L 
 H-H-0.271900(PDBName=H,ResName=PHE,ResNum=27_A) 0     25.566   -11.745    116.884  L 
 H-HA-0.133000(PDBName=HD2,ResName=PHE,ResNum=27_A) 0     25.236   -10.384    112.352  L 
 H-HA-0.133000(PDBName=HD1,ResName=PHE,ResNum=27_A) 0     23.817   -13.353    114.848  L 
 H-HC-0.029500(PDBName=HB3,ResName=PHE,ResNum=27_A) 0     26.094   -13.447    113.914  L 
 H-HC-0.029500(PDBName=HB2,ResName=PHE,ResNum=27_A) 0     26.679   -12.191    113.05   L 
 N-N--0.415700(PDBName=N,ResName=SER,ResNum=28_A) 0     27.932   -9.915     114.293  L 
 C-CT--0.024900(PDBName=CA,ResName=SER,ResNum=28_A) 0     28.119   -8.497     114.069  L 
 C-C-0.597300(PDBName=C,ResName=SER,ResNum=28_A) 0     28.269   -8.235     112.577  L 
 O-O--0.567900(PDBName=O,ResName=SER,ResNum=28_A) 0     28.815   -9.044     111.831  L 
 C-CT-0.211700(PDBName=CB,ResName=SER,ResNum=28_A) 0     29.335   -7.962     114.822  L 
 O-OH--0.654600(PDBName=OG,ResName=SER,ResNum=28_A) 0     29.201   -8.188     116.217  L 
 H-H-0.271900(PDBName=H,ResName=SER,ResNum=28_A) 0     28.547   -10.65     113.87   L 
 H-H1-0.084300(PDBName=HA,ResName=SER,ResNum=28_A) 0     27.299   -8.015     114.384  L 
 H-H1-0.035200(PDBName=HB3,ResName=SER,ResNum=28_A) 0     29.41    -6.984     114.659  L 
 H-H1-0.035200(PDBName=HB2,ResName=SER,ResNum=28_A) 0     30.149   -8.431     114.496  L 
 H-HO-0.427500(PDBName=HG,ResName=SER,ResNum=28_A) 0     28.799   -7.381     116.647  L 
 N-N--0.415700(PDBName=N,ResName=VAL,ResNum=29_A) 0     27.728   -7.106     112.136  L 
 C-CT--0.087500(PDBName=CA,ResName=VAL,ResNum=29_A) 0     27.897   -6.658     110.755  L 
 C-C-0.597300(PDBName=C,ResName=VAL,ResNum=29_A) 0     28.348   -5.195     110.761  L 
 O-O--0.567900(PDBName=O,ResName=VAL,ResNum=29_A) 0     27.84    -4.391     111.536  L 
 C-CT-0.298500(PDBName=CB,ResName=VAL,ResNum=29_A) 0     26.588   -6.804     109.967  L 
 C-CT--0.319200(PDBName=CG1,ResName=VAL,ResNum=29_A) 0     26.71    -6.253     108.546  L 
 C-CT--0.319200(PDBName=CG2,ResName=VAL,ResNum=29_A) 0     26.146   -8.259     109.932  L 
 H-H1-0.096900(PDBName=HA,ResName=VAL,ResNum=29_A) 0     28.621   -7.201     110.335  L 
 H-HC-0.079100(PDBName=HG11,ResName=VAL,ResNum=29_A) 0     25.797   -6.081     108.179  L 
 H-HC-0.079100(PDBName=HG21,ResName=VAL,ResNum=29_A) 0     25.685   -8.444     109.064  L 
 H-HC--0.029700(PDBName=HB,ResName=VAL,ResNum=29_A) 0     25.889   -6.257     110.428  L 
 H-HC-0.079100(PDBName=HG12,ResName=VAL,ResNum=29_A) 0     27.23    -5.4       108.566  L 
 H-HC-0.079100(PDBName=HG13,ResName=VAL,ResNum=29_A) 0     27.182   -6.92      107.972  L 
 H-H-0.271900(PDBName=H,ResName=VAL,ResNum=29_A) 0     27.183   -6.576     112.845  L 
 H-HC-0.079100(PDBName=HG23,ResName=VAL,ResNum=29_A) 0     26.948   -8.85      110.019  L 
 H-HC-0.079100(PDBName=HG22,ResName=VAL,ResNum=29_A) 0     25.517   -8.432     110.69   L 
 N-N--0.415700(PDBName=N,ResName=SER,ResNum=30_A) 0     29.332   -4.866     109.926  L 
 C-CT--0.024900(PDBName=CA,ResName=SER,ResNum=30_A) 0     29.712   -3.466     109.677  L 
 C-C-0.597300(PDBName=C,ResName=SER,ResNum=30_A) 0     29.357   -3.105     108.248  L 
 O-O--0.567900(PDBName=O,ResName=SER,ResNum=30_A) 0     29.534   -3.904     107.331  L 
 C-CT-0.211700(PDBName=CB,ResName=SER,ResNum=30_A) 0     31.223   -3.264     109.902  L 
 O-OH--0.654600(PDBName=OG,ResName=SER,ResNum=30_A) 0     31.595   -3.631     111.219  L 
 H-H-0.271900(PDBName=H,ResName=SER,ResNum=30_A) 0     29.805   -5.67      109.469  L 
 H-H1-0.084300(PDBName=HA,ResName=SER,ResNum=30_A) 0     29.174   -2.89      110.29   L 
 H-H1-0.035200(PDBName=HB3,ResName=SER,ResNum=30_A) 0     31.438   -2.304     109.757  L 
 H-H1-0.035200(PDBName=HB2,ResName=SER,ResNum=30_A) 0     31.718   -3.831     109.252  L 
 H-HO-0.427500(PDBName=HG,ResName=SER,ResNum=30_A) 0     31.156   -3.016     111.873  L 
 N-N--0.415700(PDBName=N,ResName=GLY,ResNum=31_A) 0     28.897   -1.876     108.053  L 
 C-CT--0.025200(PDBName=CA,ResName=GLY,ResNum=31_A) 0     28.596   -1.382     106.739  L 
 C-C-0.597300(PDBName=C,ResName=GLY,ResNum=31_A) 0     29.162   -0.017     106.504  L 
 O-O--0.567900(PDBName=O,ResName=GLY,ResNum=31_A) 0     29.381    0.75      107.437  L 
 H-H-0.271900(PDBName=H,ResName=GLY,ResNum=31_A) 0     28.778   -1.318     108.926  L 
 H-H1-0.069800(PDBName=HA2,ResName=GLY,ResNum=31_A) 0     28.964   -2.026     106.042  L 
 H-H1-0.069800(PDBName=HA3,ResName=GLY,ResNum=31_A) 0     27.587   -1.358     106.609  L 
 N-N--0.516300(PDBName=N,ResName=GLU,ResNum=32_A) 0     29.386    0.295     105.236  L 
 C-CT-0.039700(PDBName=CA,ResName=GLU,ResNum=32_A) 0     29.854    1.622     104.863  L 
 C-C-0.536600(PDBName=C,ResName=GLU,ResNum=32_A) 0     29.425    1.941     103.448  L 
 O-O--0.581900(PDBName=O,ResName=GLU,ResNum=32_A) 0     29.175    1.048     102.662  L 
 C-CT-0.056000(PDBName=CB,ResName=GLU,ResNum=32_A) 0     31.386    1.735     105.016  L 
 C-CT-0.013600(PDBName=CG,ResName=GLU,ResNum=32_A) 0     32.182    0.585     104.436  L 
 C-C-0.805400(PDBName=CD,ResName=GLU,ResNum=32_A) 0     33.68     0.844     104.496  L 
 O-O2--0.818800(PDBName=OE1,ResName=GLU,ResNum=32_A) 0     34.096    1.751     105.268  L 
 O-O2--0.818800(PDBName=OE2,ResName=GLU,ResNum=32_A) 0     34.447    0.176     103.756  L 
 H-HC--0.042500(PDBName=HG2,ResName=GLU,ResNum=32_A) 0     32.001   -0.218     104.966  L 
 H-H1-0.110500(PDBName=HA,ResName=GLU,ResNum=32_A) 0     29.474    2.304     105.495  L 
 H-HC--0.042500(PDBName=HG3,ResName=GLU,ResNum=32_A) 0     31.94     0.481     103.492  L 
 H-H-0.293600(PDBName=H,ResName=GLU,ResNum=32_A) 0     29.205   -0.463     104.556  L 
 H-HC--0.017300(PDBName=HB3,ResName=GLU,ResNum=32_A) 0     31.58     1.783     105.984  L 
 H-HC--0.017300(PDBName=HB2,ResName=GLU,ResNum=32_A) 0     31.665    2.563     104.552  L 
 N-N--0.415700(PDBName=N,ResName=GLY,ResNum=33_A) 0     29.351    3.221     103.136  L 
 C-CT--0.025200(PDBName=CA,ResName=GLY,ResNum=33_A) 0     28.978    3.682     101.821  L 
 C-C-0.597300(PDBName=C,ResName=GLY,ResNum=33_A) 0     28.623    5.152     101.881  L 
 O-O--0.567900(PDBName=O,ResName=GLY,ResNum=33_A) 0     29.257    5.926     102.59   L 
 H-H-0.271900(PDBName=H,ResName=GLY,ResNum=33_A) 0     29.587    3.871     103.926  L 
 H-H1-0.069800(PDBName=HA2,ResName=GLY,ResNum=33_A) 0     29.742    3.55      101.183  L 
 H-H1-0.069800(PDBName=HA3,ResName=GLY,ResNum=33_A) 0     28.187    3.161     101.489  L 
 N-N--0.516300(PDBName=N,ResName=GLU,ResNum=34_A) 0     27.618    5.551     101.118  L 
 C-CT-0.039700(PDBName=CA,ResName=GLU,ResNum=34_A) 0     27.268    6.958     101.035  L 
 C-C-0.536600(PDBName=C,ResName=GLU,ResNum=34_A) 0     25.849    7.154     100.524  L 
 O-O--0.581900(PDBName=O,ResName=GLU,ResNum=34_A) 0     25.267    6.265     99.91    L 
 C-CT-0.056000(PDBName=CB,ResName=GLU,ResNum=34_A) 0     28.251    7.699     100.128  L 
 C-CT-0.013600(PDBName=CG,ResName=GLU,ResNum=34_A) 0     28.43     7.08      98.761   L 
 C-C-0.805400(PDBName=CD,ResName=GLU,ResNum=34_A) 0     29.458    7.79      97.886   L 
 O-O2--0.818800(PDBName=OE1,ResName=GLU,ResNum=34_A) 0     30.554    8.172     98.377   L 
 O-O2--0.818800(PDBName=OE2,ResName=GLU,ResNum=34_A) 0     29.138    7.967     96.693   L 
 H-HC--0.042500(PDBName=HG2,ResName=GLU,ResNum=34_A) 0     28.739    6.148     98.876   L 
 H-H1-0.110500(PDBName=HA,ResName=GLU,ResNum=34_A) 0     27.358    7.386     101.947  L 
 H-HC--0.042500(PDBName=HG3,ResName=GLU,ResNum=34_A) 0     27.566    7.116     98.282   L 
 H-H-0.293600(PDBName=H,ResName=GLU,ResNum=34_A) 0     27.124    4.802     100.607  L 
 H-HC--0.017300(PDBName=HB3,ResName=GLU,ResNum=34_A) 0     29.129    7.699     100.577  L 
 H-HC--0.017300(PDBName=HB2,ResName=GLU,ResNum=34_A) 0     27.907    8.615     100.002  L 
 N-N--0.415700(PDBName=N,ResName=GLY,ResNum=35_A) 0     25.289    8.32      100.816  L 
 C-CT--0.025200(PDBName=CA,ResName=GLY,ResNum=35_A) 0     23.943    8.647     100.376  L 
 C-C-0.597300(PDBName=C,ResName=GLY,ResNum=35_A) 0     23.915    9.993     99.705   L 
 O-O--0.567900(PDBName=O,ResName=GLY,ResNum=35_A) 0     24.676    10.873    100.094  L 
 H-H-0.271900(PDBName=H,ResName=GLY,ResNum=35_A) 0     25.884    8.963     101.374  L 
 H-H1-0.069800(PDBName=HA2,ResName=GLY,ResNum=35_A) 0     23.621    7.94      99.733   L 
 H-H1-0.069800(PDBName=HA3,ResName=GLY,ResNum=35_A) 0     23.323    8.651     101.172  L 
 N-N--0.516300(PDBName=N,ResName=ASP,ResNum=36_A) 0     23.003    10.142    98.752   L 
 C-CT-0.038100(PDBName=CA,ResName=ASP,ResNum=36_A) 0     22.81     11.33     97.911   L 
 C-C-0.536600(PDBName=C,ResName=ASP,ResNum=36_A) 0     21.275    11.547    97.894   L 
 O-O--0.581900(PDBName=O,ResName=ASP,ResNum=36_A) 0     20.579    11.108    96.967   L 
 C-CT--0.030300(PDBName=CB,ResName=ASP,ResNum=36_A) 0     23.366    11.032    96.508   L 
 C-C-0.799400(PDBName=CG,ResName=ASP,ResNum=36_A) 0     23.775    12.278    95.698   L 
 O-O2--0.801400(PDBName=OD1,ResName=ASP,ResNum=36_A) 0     23.474    13.44     96.061   L 
 O-O2--0.801400(PDBName=OD2,ResName=ASP,ResNum=36_A) 0     24.424    12.161    94.612   L 
 H-H-0.293600(PDBName=H,ResName=ASP,ResNum=36_A) 0     22.382    9.279     98.636   L 
 H-H1-0.088000(PDBName=HA,ResName=ASP,ResNum=36_A) 0     23.196    12.096    98.386   L 
 H-HC--0.012200(PDBName=HB3,ResName=ASP,ResNum=36_A) 0     22.664    10.544    95.994   L 
 H-HC--0.012200(PDBName=HB2,ResName=ASP,ResNum=36_A) 0     24.172    10.451    96.612   L 
 N-N--0.415700(PDBName=N,ResName=ALA,ResNum=37_A) 0     20.766    12.18     98.955   L 
 C-CT-0.033700(PDBName=CA,ResName=ALA,ResNum=37_A) 0     19.32     12.359    99.171   L 
 C-C-0.597300(PDBName=C,ResName=ALA,ResNum=37_A) 0     18.669    13.196    98.076   L 
 O-O--0.567900(PDBName=O,ResName=ALA,ResNum=37_A) 0     17.469    13.091    97.847   L 
 C-CT--0.182500(PDBName=CB,ResName=ALA,ResNum=37_A) 0     19.035    12.976    100.565  L 
 H-H-0.271900(PDBName=H,ResName=ALA,ResNum=37_A) 0     21.484    12.541    99.624   L 
 H-H1-0.082300(PDBName=HA,ResName=ALA,ResNum=37_A) 0     18.885    11.446    99.183   L 
 H-HC-0.060300(PDBName=HB1,ResName=ALA,ResNum=37_A) 0     18.513    12.322    101.104  L 
 H-HC-0.060300(PDBName=HB3,ResName=ALA,ResNum=37_A) 0     19.902    13.173    101.011  L 
 H-HC-0.060300(PDBName=HB2,ResName=ALA,ResNum=37_A) 0     18.513    13.814    100.443  L 
 N-N--0.415700(PDBName=N,ResName=THR,ResNum=38_A) 0     19.463    13.981    97.361   L 
 C-CT--0.038900(PDBName=CA,ResName=THR,ResNum=38_A) 0     18.957    14.717    96.206   L 
 C-C-0.597300(PDBName=C,ResName=THR,ResNum=38_A) 0     18.314    13.784    95.203   L 
 O-O--0.567900(PDBName=O,ResName=THR,ResNum=38_A) 0     17.331    14.158    94.567   L 
 C-CT-0.365400(PDBName=CB,ResName=THR,ResNum=38_A) 0     20.062    15.526    95.545   L 
 O-OH--0.676100(PDBName=OG1,ResName=THR,ResNum=38_A) 0     20.551    16.514    96.461   L 
 C-CT--0.243800(PDBName=CG2,ResName=THR,ResNum=38_A) 0     19.514    16.312    94.334   L 
 H-H1-0.100700(PDBName=HA,ResName=THR,ResNum=38_A) 0     18.261    15.372    96.528   L 
 H-HC-0.064200(PDBName=HG22,ResName=THR,ResNum=38_A) 0     19.079    15.675    93.698   L 
 H-HC-0.064200(PDBName=HG21,ResName=THR,ResNum=38_A) 0     18.844    16.981    94.652   L 
 H-H-0.271900(PDBName=H,ResName=THR,ResNum=38_A) 0     20.446    14.026    97.683   L 
 H-H1-0.004300(PDBName=HB,ResName=THR,ResNum=38_A) 0     20.84     14.905    95.309   L 
 H-HC-0.064200(PDBName=HG23,ResName=THR,ResNum=38_A) 0     20.269    16.781    93.878   L 
 H-HO-0.410200(PDBName=HG1,ResName=THR,ResNum=38_A) 0     20.745    16.096    97.355   L 
 N-N--0.415700(PDBName=N,ResName=TYR,ResNum=39_A) 0     18.844    12.565    95.09    L 
 C-CT--0.001400(PDBName=CA,ResName=TYR,ResNum=39_A) 0     18.324    11.542    94.199   L 
 C-C-0.597300(PDBName=C,ResName=TYR,ResNum=39_A) 0     17.674    10.385    94.939   L 
 O-O--0.567900(PDBName=O,ResName=TYR,ResNum=39_A) 0     17.242    9.422     94.317   L 
 C-CT--0.015200(PDBName=CB,ResName=TYR,ResNum=39_A) 0     19.445    11.051    93.25    L 
 C-CA--0.001100(PDBName=CG,ResName=TYR,ResNum=39_A) 0     20.132    12.228    92.623   L 
 C-CA--0.190600(PDBName=CD1,ResName=TYR,ResNum=39_A) 0     21.265    12.788    93.187   L 
 C-CA--0.190600(PDBName=CD2,ResName=TYR,ResNum=39_A) 0     19.588    12.845    91.492   L 
 C-CA--0.234100(PDBName=CE1,ResName=TYR,ResNum=39_A) 0     21.849    13.929    92.633   L 
 C-CA--0.234100(PDBName=CE2,ResName=TYR,ResNum=39_A) 0     20.166    13.954    90.933   L 
 C-C-0.322600(PDBName=CZ,ResName=TYR,ResNum=39_A) 0     21.281    14.498    91.505   L 
 O-OH--0.557900(PDBName=OH,ResName=TYR,ResNum=39_A) 0     21.823    15.614    90.933   L 
 H-H1-0.087600(PDBName=HA,ResName=TYR,ResNum=39_A) 0     17.62     11.968    93.602   L 
 H-HA-0.165600(PDBName=HE1,ResName=TYR,ResNum=39_A) 0     22.665    14.325    93.046   L 
 H-HA-0.165600(PDBName=HE2,ResName=TYR,ResNum=39_A) 0     19.771    14.367    90.104   L 
 H-H-0.271900(PDBName=H,ResName=TYR,ResNum=39_A) 0     19.68     12.41     95.71    L 
 H-HA-0.169900(PDBName=HD2,ResName=TYR,ResNum=39_A) 0     18.755    12.457    91.088   L 
 H-HA-0.169900(PDBName=HD1,ResName=TYR,ResNum=39_A) 0     21.676    12.378    94.      L 
 H-HC-0.029500(PDBName=HB3,ResName=TYR,ResNum=39_A) 0     19.028    10.511    92.547   L 
 H-HC-0.029500(PDBName=HB2,ResName=TYR,ResNum=39_A) 0     20.092    10.547    93.785   L 
 H-HO-0.399200(PDBName=HH,ResName=TYR,ResNum=39_A) 0     21.575    16.418    91.473   L 
 N-N--0.415700(PDBName=N,ResName=GLY,ResNum=40_A) 0     17.575    10.478    96.26    L 
 C-CT--0.025200(PDBName=CA,ResName=GLY,ResNum=40_A) 0     16.96     9.413     97.038   L 
 C-C-0.597300(PDBName=C,ResName=GLY,ResNum=40_A) 0     17.787    8.143     96.983   L 
 O-O--0.567900(PDBName=O,ResName=GLY,ResNum=40_A) 0     17.273    7.035     97.073   L 
 H-H-0.271900(PDBName=H,ResName=GLY,ResNum=40_A) 0     17.96     11.344    96.671   L 
 H-H1-0.069800(PDBName=HA2,ResName=GLY,ResNum=40_A) 0     16.866    9.71      97.998   L 
 H-H1-0.069800(PDBName=HA3,ResName=GLY,ResNum=40_A) 0     16.035    9.226     96.679   L 
 N-N--0.347900(PDBName=N,ResName=LYS,ResNum=41_A) 0     19.091    8.29      96.846   L 
 C-CT--0.240000(PDBName=CA,ResName=LYS,ResNum=41_A) 0     19.894    7.139     96.482   L 
 C-C-0.734100(PDBName=C,ResName=LYS,ResNum=41_A) 0     20.992    6.819     97.493   L 
 O-O--0.589400(PDBName=O,ResName=LYS,ResNum=41_A) 0     21.656    7.7       98.017   L 
 C-CT--0.009400(PDBName=CB,ResName=LYS,ResNum=41_A) 0     20.424    7.365     95.077   L 
 C-CT-0.018700(PDBName=CG,ResName=LYS,ResNum=41_A) 0     21.775    6.879     94.852   L 
 C-CT--0.047900(PDBName=CD,ResName=LYS,ResNum=41_A) 0     22.073    6.759     93.369   L 
 C-CT--0.014300(PDBName=CE,ResName=LYS,ResNum=41_A) 0     23.414    7.348     93.08    L 
 N-N3--0.385400(PDBName=NZ,ResName=LYS,ResNum=41_A) 0     23.542    8.771     93.406   L 
 H-H1-0.142600(PDBName=HA,ResName=LYS,ResNum=41_A) 0     19.287    6.325     96.402   L 
 H-HP-0.113500(PDBName=HE2,ResName=LYS,ResNum=41_A) 0     24.123    6.825     93.596   L 
 H-HP-0.113500(PDBName=HE3,ResName=LYS,ResNum=41_A) 0     23.628    7.214     92.09    L 
 H-HC-0.010300(PDBName=HG2,ResName=LYS,ResNum=41_A) 0     22.452    7.508     95.252   L 
 H-HC-0.010300(PDBName=HG3,ResName=LYS,ResNum=41_A) 0     21.902    5.971     95.267   L 
 H-H-0.340000(PDBName=HZ1,ResName=LYS,ResNum=41_A) 0     23.625    8.889     94.399   L 
 H-H-0.340000(PDBName=HZ3,ResName=LYS,ResNum=41_A) 0     24.358    9.152     92.963   L 
 H-H-0.340000(PDBName=HZ2,ResName=LYS,ResNum=41_A) 0     22.733    9.271     93.084   L 
 H-HC-0.062100(PDBName=HD3,ResName=LYS,ResNum=41_A) 0     21.38     7.255     92.865   L 
 H-HC-0.062100(PDBName=HD2,ResName=LYS,ResNum=41_A) 0     22.075    5.8       93.123   L 
 H-H-0.274700(PDBName=H,ResName=LYS,ResNum=41_A) 0     19.461    9.23      97.009   L 
 H-HC-0.036200(PDBName=HB3,ResName=LYS,ResNum=41_A) 0     20.384    8.358     94.899   L 
 H-HC-0.036200(PDBName=HB2,ResName=LYS,ResNum=41_A) 0     19.787    6.91      94.44    L 
 N-N--0.415700(PDBName=N,ResName=LEU,ResNum=42_A) 0     21.168    5.53      97.737   L 
 C-CT--0.051800(PDBName=CA,ResName=LEU,ResNum=42_A) 0     22.032    5.004     98.776   L 
 C-C-0.597300(PDBName=C,ResName=LEU,ResNum=42_A) 0     22.86     3.88      98.17    L 
 O-O--0.567900(PDBName=O,ResName=LEU,ResNum=42_A) 0     22.343    3.081     97.406   L 
 C-CT--0.110200(PDBName=CB,ResName=LEU,ResNum=42_A) 0     21.175    4.374     99.907   L 
 C-CT-0.353100(PDBName=CG,ResName=LEU,ResNum=42_A) 0     20.607    5.23      101.03   L 
 C-CT--0.412100(PDBName=CD1,ResName=LEU,ResNum=42_A) 0     19.454    4.54      101.679  L 
 C-CT--0.412100(PDBName=CD2,ResName=LEU,ResNum=42_A) 0     21.668    5.519     102.03   L 
 H-HC-0.100000(PDBName=HD22,ResName=LEU,ResNum=42_A) 0     22.432    6.014     101.601  L 
 H-HC-0.100000(PDBName=HD23,ResName=LEU,ResNum=42_A) 0     21.303    6.085     102.778  L 
 H-HC-0.100000(PDBName=HD21,ResName=LEU,ResNum=42_A) 0     22.024    4.664     102.423  L 
 H-H-0.271900(PDBName=H,ResName=LEU,ResNum=42_A) 0     20.61     4.9       97.093   L 
 H-HC-0.100000(PDBName=HD13,ResName=LEU,ResNum=42_A) 0     19.746    3.659     102.065  L 
 H-HC-0.100000(PDBName=HD12,ResName=LEU,ResNum=42_A) 0     19.08     5.107     102.421  L 
 H-HC-0.100000(PDBName=HD11,ResName=LEU,ResNum=42_A) 0     18.726    4.37      101.007  L 
 H-H1-0.092200(PDBName=HA,ResName=LEU,ResNum=42_A) 0     22.65     5.723     99.079   L 
 H-HC--0.036100(PDBName=HG,ResName=LEU,ResNum=42_A) 0     20.31     6.108     100.646  L 
 H-HC-0.045700(PDBName=HB3,ResName=LEU,ResNum=42_A) 0     21.744    3.649     100.334  L 
 H-HC-0.045700(PDBName=HB2,ResName=LEU,ResNum=42_A) 0     20.392    3.908     99.454   L 
 N-N--0.415700(PDBName=N,ResName=THR,ResNum=43_A) 0     24.137    3.817     98.537   L 
 C-CT--0.038900(PDBName=CA,ResName=THR,ResNum=43_A) 0     25.002    2.719     98.136   L 
 C-C-0.597300(PDBName=C,ResName=THR,ResNum=43_A) 0     25.738    2.262     99.386   L 
 O-O--0.567900(PDBName=O,ResName=THR,ResNum=43_A) 0     26.444    3.042     100.01   L 
 C-CT-0.365400(PDBName=CB,ResName=THR,ResNum=43_A) 0     25.993    3.159     97.053   L 
 O-OH--0.676100(PDBName=OG1,ResName=THR,ResNum=43_A) 0     26.684    4.329     97.478   L 
 C-CT--0.243800(PDBName=CG2,ResName=THR,ResNum=43_A) 0     25.307    3.653     95.847   L 
 H-H1-0.100700(PDBName=HA,ResName=THR,ResNum=43_A) 0     24.44     1.97      97.81    L 
 H-HC-0.064200(PDBName=HG22,ResName=THR,ResNum=43_A) 0     24.828    2.902     95.367   L 
 H-HC-0.064200(PDBName=HG21,ResName=THR,ResNum=43_A) 0     24.62     4.358     96.081   L 
 H-H-0.271900(PDBName=H,ResName=THR,ResNum=43_A) 0     24.457    4.613     99.128   L 
 H-H1-0.004300(PDBName=HB,ResName=THR,ResNum=43_A) 0     26.68     2.414     96.912   L 
 H-HC-0.064200(PDBName=HG23,ResName=THR,ResNum=43_A) 0     25.964    4.066     95.197   L 
 H-HO-0.410200(PDBName=HG1,ResName=THR,ResNum=43_A) 0     26.148    4.824     98.172   L 
 N-N--0.415700(PDBName=N,ResName=LEU,ResNum=44_A) 0     25.567    0.992     99.743   L 
 C-CT--0.051800(PDBName=CA,ResName=LEU,ResNum=44_A) 0     26.106    0.446     100.972  L 
 C-C-0.597300(PDBName=C,ResName=LEU,ResNum=44_A) 0     26.639   -0.991     100.766  L 
 O-O--0.567900(PDBName=O,ResName=LEU,ResNum=44_A) 0     26.104   -1.762     99.968   L 
 C-CT--0.110200(PDBName=CB,ResName=LEU,ResNum=44_A) 0     25.002    0.429     102.045  L 
 C-CT-0.353100(PDBName=CG,ResName=LEU,ResNum=44_A) 0     24.575    1.789     102.618  L 
 C-CT--0.412100(PDBName=CD1,ResName=LEU,ResNum=44_A) 0     23.298    1.678     103.429  L 
 C-CT--0.412100(PDBName=CD2,ResName=LEU,ResNum=44_A) 0     25.662    2.367     103.467  L 
 H-HC-0.100000(PDBName=HD22,ResName=LEU,ResNum=44_A) 0     26.496    2.498     102.923  L 
 H-HC-0.100000(PDBName=HD23,ResName=LEU,ResNum=44_A) 0     25.378    3.256     103.839  L 
 H-HC-0.100000(PDBName=HD21,ResName=LEU,ResNum=44_A) 0     25.871    1.75      104.232  L 
 H-H-0.271900(PDBName=H,ResName=LEU,ResNum=44_A) 0     25.011    0.427     99.059   L 
 H-HC-0.100000(PDBName=HD13,ResName=LEU,ResNum=44_A) 0     23.437    1.045     104.193  L 
 H-HC-0.100000(PDBName=HD12,ResName=LEU,ResNum=44_A) 0     23.047    2.579     103.788  L 
 H-HC-0.100000(PDBName=HD11,ResName=LEU,ResNum=44_A) 0     22.558    1.336     102.848  L 
 H-H1-0.092200(PDBName=HA,ResName=LEU,ResNum=44_A) 0     26.878    1.017     101.277  L 
 H-HC--0.036100(PDBName=HG,ResName=LEU,ResNum=44_A) 0     24.435    2.428     101.856  L 
 H-HC-0.045700(PDBName=HB3,ResName=LEU,ResNum=44_A) 0     25.328   -0.125     102.806  L 
 H-HC-0.045700(PDBName=HB2,ResName=LEU,ResNum=44_A) 0     24.192    0.011     101.64   L 
 N-N--0.347900(PDBName=N,ResName=LYS,ResNum=45_A) 0     27.713   -1.303     101.472  L 
 C-CT--0.240000(PDBName=CA,ResName=LYS,ResNum=45_A) 0     28.259   -2.661     101.535  L 
 C-C-0.734100(PDBName=C,ResName=LYS,ResNum=45_A) 0     28.356   -3.066     103.     L 
 O-O--0.589400(PDBName=O,ResName=LYS,ResNum=45_A) 0     28.879   -2.337     103.835  L 
 C-CT--0.009400(PDBName=CB,ResName=LYS,ResNum=45_A) 0     29.657   -2.732     100.896  L 
 C-CT-0.018700(PDBName=CG,ResName=LYS,ResNum=45_A) 0     30.285   -4.107     101.064  L 
 C-CT--0.047900(PDBName=CD,ResName=LYS,ResNum=45_A) 0     31.609   -4.239     100.321  L 
 C-CT--0.014300(PDBName=CE,ResName=LYS,ResNum=45_A) 0     32.294   -5.531     100.683  L 
 N-N3--0.385400(PDBName=NZ,ResName=LYS,ResNum=45_A) 0     33.747   -5.549     100.218  L 
 H-H1-0.142600(PDBName=HA,ResName=LYS,ResNum=45_A) 0     27.636   -3.282     101.068  L 
 H-HP-0.113500(PDBName=HE2,ResName=LYS,ResNum=45_A) 0     32.286   -5.654     101.676  L 
 H-HP-0.113500(PDBName=HE3,ResName=LYS,ResNum=45_A) 0     31.822   -6.3       100.25   L 
 H-HC-0.010300(PDBName=HG2,ResName=LYS,ResNum=45_A) 0     30.446   -4.276     102.041  L 
 H-HC-0.010300(PDBName=HG3,ResName=LYS,ResNum=45_A) 0     29.65    -4.802     100.716  L 
 H-H-0.340000(PDBName=HZ1,ResName=LYS,ResNum=45_A) 0     33.833   -6.216     99.486   L 
 H-H-0.340000(PDBName=HZ3,ResName=LYS,ResNum=45_A) 0     33.982   -4.641     99.892   L 
 H-H-0.340000(PDBName=HZ2,ResName=LYS,ResNum=45_A) 0     34.319   -5.802     100.99   L 
 H-HC-0.062100(PDBName=HD3,ResName=LYS,ResNum=45_A) 0     32.194   -3.479     100.576  L 
 H-HC-0.062100(PDBName=HD2,ResName=LYS,ResNum=45_A) 0     31.427   -4.23      99.345   L 
 H-H-0.274700(PDBName=H,ResName=LYS,ResNum=45_A) 0     28.144   -0.498     101.985  L 
 H-HC-0.036200(PDBName=HB3,ResName=LYS,ResNum=45_A) 0     30.233   -2.064     101.342  L 
 H-HC-0.036200(PDBName=HB2,ResName=LYS,ResNum=45_A) 0     29.564   -2.543     99.931   L 
 N-N--0.415700(PDBName=N,ResName=PHE,ResNum=46_A) 0     27.916   -4.281     103.283  L 
 C-CT--0.002400(PDBName=CA,ResName=PHE,ResNum=46_A) 0     27.871   -4.828     104.608  L 
 C-C-0.597300(PDBName=C,ResName=PHE,ResNum=46_A) 0     28.693   -6.096     104.644  L 
 O-O--0.567900(PDBName=O,ResName=PHE,ResNum=46_A) 0     28.617   -6.917     103.712  L 
 C-CT--0.034300(PDBName=CB,ResName=PHE,ResNum=46_A) 0     26.435   -5.206     104.947  L 
 C-CA-0.011800(PDBName=CG,ResName=PHE,ResNum=46_A) 0     25.485   -4.038     104.868  L 
 C-CA--0.125600(PDBName=CD1,ResName=PHE,ResNum=46_A) 0     25.408   -3.117     105.894  L 
 C-CA--0.125600(PDBName=CD2,ResName=PHE,ResNum=46_A) 0     24.713   -3.849     103.751  L 
 C-CA--0.170400(PDBName=CE1,ResName=PHE,ResNum=46_A) 0     24.55    -1.998     105.779  L 
 C-CA--0.170400(PDBName=CE2,ResName=PHE,ResNum=46_A) 0     23.858   -2.74      103.645  L 
 C-CA--0.107200(PDBName=CZ,ResName=PHE,ResNum=46_A) 0     23.797   -1.836     104.651  L 
 H-HA-0.129700(PDBName=HZ,ResName=PHE,ResNum=46_A) 0     23.19    -1.028     104.575  L 
 H-H1-0.097800(PDBName=HA,ResName=PHE,ResNum=46_A) 0     28.321   -4.174     105.22   L 
 H-HA-0.143000(PDBName=HE1,ResName=PHE,ResNum=46_A) 0     24.514   -1.343     106.54   L 
 H-HA-0.143000(PDBName=HE2,ResName=PHE,ResNum=46_A) 0     23.296   -2.642     102.804  L 
 H-H-0.271900(PDBName=H,ResName=PHE,ResNum=46_A) 0     27.596   -4.82      102.429  L 
 H-HA-0.133000(PDBName=HD2,ResName=PHE,ResNum=46_A) 0     24.749   -4.502     102.992  L 
 H-HA-0.133000(PDBName=HD1,ResName=PHE,ResNum=46_A) 0     25.946   -3.221     106.717  L 
 H-HC-0.029500(PDBName=HB3,ResName=PHE,ResNum=46_A) 0     26.418   -5.548     105.871  L 
 H-HC-0.029500(PDBName=HB2,ResName=PHE,ResNum=46_A) 0     26.135   -5.884     104.298  L 
 N-N--0.415700(PDBName=N,ResName=ILE,ResNum=47_A) 0     29.433   -6.246     105.724  L 
 C-CT--0.059700(PDBName=CA,ResName=ILE,ResNum=47_A) 0     30.22    -7.443     105.979  L 
 C-C-0.597300(PDBName=C,ResName=ILE,ResNum=47_A) 0     29.877   -8.03      107.33   L 
 O-O--0.567900(PDBName=O,ResName=ILE,ResNum=47_A) 0     29.865   -7.343     108.337  L 
 C-CT-0.130300(PDBName=CB,ResName=ILE,ResNum=47_A) 0     31.728   -7.091     105.922  L 
 C-CT--0.043000(PDBName=CG1,ResName=ILE,ResNum=47_A) 0     32.088   -6.536     104.549  L 
 C-CT--0.320400(PDBName=CG2,ResName=ILE,ResNum=47_A) 0     32.608   -8.332     106.289  L 
 C-CT--0.066000(PDBName=CD1,ResName=ILE,ResNum=47_A) 0     33.4     -5.801     104.53   L 
 H-H1-0.086900(PDBName=HA,ResName=ILE,ResNum=47_A) 0     29.939   -8.117     105.289  L 
 H-HC-0.088200(PDBName=HG22,ResName=ILE,ResNum=47_A) 0     33.556   -8.041     106.291  L 
 H-HC-0.088200(PDBName=HG21,ResName=ILE,ResNum=47_A) 0     32.329   -8.646     107.187  L 
 H-HC-0.018700(PDBName=HB,ResName=ILE,ResNum=47_A) 0     31.898   -6.385     106.6    L 
 H-HC-0.023600(PDBName=HG12,ResName=ILE,ResNum=47_A) 0     32.128   -7.295     103.902  L 
 H-HC-0.023600(PDBName=HG13,ResName=ILE,ResNum=47_A) 0     31.363   -5.91      104.265  L 
 H-HC-0.018600(PDBName=HD13,ResName=ILE,ResNum=47_A) 0     34.136   -6.42      104.806  L 
 H-H-0.271900(PDBName=H,ResName=ILE,ResNum=47_A) 0     29.408   -5.432     106.385  L 
 H-HC-0.018600(PDBName=HD12,ResName=ILE,ResNum=47_A) 0     33.581   -5.462     103.607  L 
 H-HC-0.088200(PDBName=HG23,ResName=ILE,ResNum=47_A) 0     32.45    -9.029     105.602  L 
 H-HC-0.018600(PDBName=HD11,ResName=ILE,ResNum=47_A) 0     33.362   -5.029     105.165  L 
 N-N--0.415700(PDBName=N,ResName=CYS,ResNum=48_A) 0     29.616   -9.33      107.358  L 
 C-CT-0.021300(PDBName=CA,ResName=CYS,ResNum=48_A) 0     29.5     -10.034    108.623  L 
 C-C-0.597300(PDBName=C,ResName=CYS,ResNum=48_A) 0     30.898   -10.314    109.119  L 
 O-O--0.567900(PDBName=O,ResName=CYS,ResNum=48_A) 0     31.593   -11.173    108.57   L 
 C-CT--0.123100(PDBName=CB,ResName=CYS,ResNum=48_A) 0     28.742   -11.346    108.467  L 
 S-SH--0.311900(PDBName=SG,ResName=CYS,ResNum=48_A) 0     28.554   -12.195    110.047  L 
 H-H-0.271900(PDBName=H,ResName=CYS,ResNum=48_A) 0     29.507   -9.779     106.434  L 
 H-H1-0.112400(PDBName=HA,ResName=CYS,ResNum=48_A) 0     29.046   -9.435     109.277  L 
 H-H1-0.111200(PDBName=HB3,ResName=CYS,ResNum=48_A) 0     29.253   -11.932    107.858  L 
 H-H1-0.111200(PDBName=HB2,ResName=CYS,ResNum=48_A) 0     27.843   -11.148    108.111  L 
 H-HS-0.193300(PDBName=HG,ResName=CYS,ResNum=48_A) 0     28.549   -11.524    110.79   L 
 N-N--0.415700(PDBName=N,ResName=THR,ResNum=49_A) 0     31.311   -9.585     110.147  L 
 C-CT--0.038900(PDBName=CA,ResName=THR,ResNum=49_A) 0     32.67    -9.679     110.653  L 
 C-C-0.597300(PDBName=C,ResName=THR,ResNum=49_A) 0     32.875   -10.888    111.583  L 
 O-O--0.567900(PDBName=O,ResName=THR,ResNum=49_A) 0     34.013   -11.188    111.985  L 
 C-CT-0.365400(PDBName=CB,ResName=THR,ResNum=49_A) 0     33.072   -8.373     111.354  L 
 O-OH--0.676100(PDBName=OG1,ResName=THR,ResNum=49_A) 0     32.22    -8.132     112.475  L 
 C-CT--0.243800(PDBName=CG2,ResName=THR,ResNum=49_A) 0     32.869   -7.163     110.433  L 
 H-H1-0.100700(PDBName=HA,ResName=THR,ResNum=49_A) 0     33.303   -9.782     109.869  L 
 H-HC-0.064200(PDBName=HG22,ResName=THR,ResNum=49_A) 0     31.935   -6.817     110.537  L 
 H-HC-0.064200(PDBName=HG21,ResName=THR,ResNum=49_A) 0     33.521   -6.444     110.678  L 
 H-H-0.271900(PDBName=H,ResName=THR,ResNum=49_A) 0     30.59    -8.953     110.551  L 
 H-H1-0.004300(PDBName=HB,ResName=THR,ResNum=49_A) 0     34.032   -8.465     111.697  L 
 H-HC-0.064200(PDBName=HG23,ResName=THR,ResNum=49_A) 0     33.018   -7.438     109.482  L 
 H-HO-0.410200(PDBName=HG1,ResName=THR,ResNum=49_A) 0     31.268   -8.371     112.251  L 
 N-N--0.415700(PDBName=N,ResName=THR,ResNum=50_A) 0     31.808   -11.597    111.928  L 
 C-CT--0.038900(PDBName=CA,ResName=THR,ResNum=50_A) 0     31.972   -12.728    112.844  L 
 C-C-0.597300(PDBName=C,ResName=THR,ResNum=50_A) 0     32.013   -14.066    112.14   L 
 O-O--0.567900(PDBName=O,ResName=THR,ResNum=50_A) 0     32.122   -15.107    112.799  L 
 C-CT-0.365400(PDBName=CB,ResName=THR,ResNum=50_A) 0     30.869   -12.741    113.924  L 
 O-OH--0.676100(PDBName=OG1,ResName=THR,ResNum=50_A) 0     29.587   -12.451    113.335  L 
 C-CT--0.243800(PDBName=CG2,ResName=THR,ResNum=50_A) 0     31.121   -11.665    114.951  L 
 H-H1-0.100700(PDBName=HA,ResName=THR,ResNum=50_A) 0     32.847   -12.6      113.347  L 
 H-HC-0.064200(PDBName=HG22,ResName=THR,ResNum=50_A) 0     30.832   -10.771    114.594  L 
 H-HC-0.064200(PDBName=HG21,ResName=THR,ResNum=50_A) 0     30.604   -11.86     115.791  L 
 H-H-0.271900(PDBName=H,ResName=THR,ResNum=50_A) 0     30.919   -11.304    111.525  L 
 H-H1-0.004300(PDBName=HB,ResName=THR,ResNum=50_A) 0     30.823   -13.675    114.336  L 
 H-HC-0.064200(PDBName=HG23,ResName=THR,ResNum=50_A) 0     32.1     -11.623    115.176  L 
 H-HO-0.410200(PDBName=HG1,ResName=THR,ResNum=50_A) 0     29.678   -12.35     112.34   L 
 N-N--0.415700(PDBName=N,ResName=GLY,ResNum=51_A) 0     31.928   -14.062    110.821  L 
 C-CT--0.025200(PDBName=CA,ResName=GLY,ResNum=51_A) 0     31.835   -15.284    110.046  L 
 C-C-0.597300(PDBName=C,ResName=GLY,ResNum=51_A) 0     30.609   -15.335    109.159  L 
 O-O--0.567900(PDBName=O,ResName=GLY,ResNum=51_A) 0     30.262   -14.353    108.482  L 
 H-H-0.271900(PDBName=H,ResName=GLY,ResNum=51_A) 0     31.934   -13.11     110.389  L 
 H-H1-0.069800(PDBName=HA2,ResName=GLY,ResNum=51_A) 0     32.669   -15.381    109.47   L 
 H-H1-0.069800(PDBName=HA3,ResName=GLY,ResNum=51_A) 0     31.824   -16.083    110.677  L 
 N-N--0.347900(PDBName=N,ResName=LYS,ResNum=52_A) 0     29.955   -16.487    109.131  L 
 C-CT--0.240000(PDBName=CA,ResName=LYS,ResNum=52_A) 0     28.748   -16.637    108.343  L 
 C-C-0.734100(PDBName=C,ResName=LYS,ResNum=52_A) 0     27.589   -15.965    109.05   L 
 O-O--0.589400(PDBName=O,ResName=LYS,ResNum=52_A) 0     27.434   -16.064    110.261  L 
 C-CT--0.009400(PDBName=CB,ResName=LYS,ResNum=52_A) 0     28.431   -18.104    108.048  L 
 C-CT-0.018700(PDBName=CG,ResName=LYS,ResNum=52_A) 0     29.193   -18.627    106.831  L 
 C-CT--0.047900(PDBName=CD,ResName=LYS,ResNum=52_A) 0     28.472   -18.272    105.505  L 
 C-CT--0.014300(PDBName=CE,ResName=LYS,ResNum=52_A) 0     29.446   -17.877    104.401  L 
 N-N3--0.385400(PDBName=NZ,ResName=LYS,ResNum=52_A) 0     28.712   -17.708    103.097  L 
 H-H1-0.142600(PDBName=HA,ResName=LYS,ResNum=52_A) 0     28.882   -16.197    107.45   L 
 H-HP-0.113500(PDBName=HE2,ResName=LYS,ResNum=52_A) 0     29.881   -17.015    104.641  L 
 H-HP-0.113500(PDBName=HE3,ResName=LYS,ResNum=52_A) 0     30.13    -18.592    104.296  L 
 H-HC-0.010300(PDBName=HG2,ResName=LYS,ResNum=52_A) 0     30.103   -18.218    106.81   L 
 H-HC-0.010300(PDBName=HG3,ResName=LYS,ResNum=52_A) 0     29.268   -19.62     106.889  L 
 H-H-0.340000(PDBName=HZ1,ResName=LYS,ResNum=52_A) 0     28.166   -16.875    103.14   L 
 H-H-0.340000(PDBName=HZ3,ResName=LYS,ResNum=52_A) 0     29.378   -17.642    102.358  L 
 H-H-0.340000(PDBName=HZ2,ResName=LYS,ResNum=52_A) 0     28.121   -18.498    102.955  L 
 H-HC-0.062100(PDBName=HD3,ResName=LYS,ResNum=52_A) 0     27.857   -17.51     105.681  L 
 H-HC-0.062100(PDBName=HD2,ResName=LYS,ResNum=52_A) 0     27.956   -19.07     105.21   L 
 H-H-0.274700(PDBName=H,ResName=LYS,ResNum=52_A) 0     30.37    -17.243    109.703  L 
 H-HC-0.036200(PDBName=HB3,ResName=LYS,ResNum=52_A) 0     27.461   -18.185    107.866  L 
 H-HC-0.036200(PDBName=HB2,ResName=LYS,ResNum=52_A) 0     28.692   -18.646    108.834  L 
 N-N--0.415700(PDBName=N,ResName=LEU,ResNum=53_A) 0     26.812   -15.221    108.282  L 
 C-CT--0.051800(PDBName=CA,ResName=LEU,ResNum=53_A) 0     25.615   -14.594    108.808  L 
 C-C-0.597300(PDBName=C,ResName=LEU,ResNum=53_A) 0     24.599   -15.698    109.087  L 
 O-O--0.567900(PDBName=O,ResName=LEU,ResNum=53_A) 0     24.311   -16.504    108.207  L 
 C-CT--0.110200(PDBName=CB,ResName=LEU,ResNum=53_A) 0     25.065   -13.591    107.799  L 
 C-CT-0.353100(PDBName=CG,ResName=LEU,ResNum=53_A) 0     24.008   -12.638    108.356  L 
 C-CT--0.412100(PDBName=CD1,ResName=LEU,ResNum=53_A) 0     24.599   -11.712    109.412  L 
 C-CT--0.412100(PDBName=CD2,ResName=LEU,ResNum=53_A) 0     23.348   -11.841    107.219  L 
 H-HC-0.100000(PDBName=HD22,ResName=LEU,ResNum=53_A) 0     22.913   -12.476    106.584  L 
 H-HC-0.100000(PDBName=HD23,ResName=LEU,ResNum=53_A) 0     22.663   -11.227    107.605  L 
 H-HC-0.100000(PDBName=HD21,ResName=LEU,ResNum=53_A) 0     24.046   -11.312    106.742  L 
 H-H-0.271900(PDBName=H,ResName=LEU,ResNum=53_A) 0     27.126   -15.128    107.297  L 
 H-HC-0.100000(PDBName=HD13,ResName=LEU,ResNum=53_A) 0     25.334   -11.169    109.006  L 
 H-HC-0.100000(PDBName=HD12,ResName=LEU,ResNum=53_A) 0     23.886   -11.102    109.757  L 
 H-HC-0.100000(PDBName=HD11,ResName=LEU,ResNum=53_A) 0     24.965   -12.257    110.167  L 
 H-H1-0.092200(PDBName=HA,ResName=LEU,ResNum=53_A) 0     25.834   -14.145    109.668  L 
 H-HC--0.036100(PDBName=HG,ResName=LEU,ResNum=53_A) 0     23.267   -13.176    108.765  L 
 H-HC-0.045700(PDBName=HB3,ResName=LEU,ResNum=53_A) 0     24.648   -14.097    107.058  L 
 H-HC-0.045700(PDBName=HB2,ResName=LEU,ResNum=53_A) 0     25.82    -13.038    107.472  L 
 N-N--0.254800(PDBName=N,ResName=PRO,ResNum=54_A) 0     24.084   -15.774    110.308  L 
 C-CT--0.026600(PDBName=CA,ResName=PRO,ResNum=54_A) 0     23.152   -16.861    110.68   L 
 C-C-0.589600(PDBName=C,ResName=PRO,ResNum=54_A) 0     21.69    -16.678    110.239  L 
 O-O--0.574800(PDBName=O,ResName=PRO,ResNum=54_A) 0     20.862   -17.587    110.436  L 
 C-CT--0.007000(PDBName=CB,ResName=PRO,ResNum=54_A) 0     23.269   -16.893    112.199  L 
 C-CT-0.018900(PDBName=CG,ResName=PRO,ResNum=54_A) 0     23.631   -15.489    112.583  L 
 C-CT-0.019200(PDBName=CD,ResName=PRO,ResNum=54_A) 0     24.424   -14.932    111.467  L 
 H-HC-0.021300(PDBName=HG2,ResName=PRO,ResNum=54_A) 0     22.789   -14.949    112.747  L 
 H-H1-0.064100(PDBName=HA,ResName=PRO,ResNum=54_A) 0     23.512   -17.761    110.341  L 
 H-H1-0.039100(PDBName=HD3,ResName=PRO,ResNum=54_A) 0     25.417   -14.977    111.648  L 
 H-H1-0.039100(PDBName=HD2,ResName=PRO,ResNum=54_A) 0     24.186   -13.97     111.276  L 
 H-HC-0.021300(PDBName=HG3,ResName=PRO,ResNum=54_A) 0     24.159   -15.495    113.448  L 
 H-HC-0.025300(PDBName=HB3,ResName=PRO,ResNum=54_A) 0     23.982   -17.536    112.49   L 
 H-HC-0.025300(PDBName=HB2,ResName=PRO,ResNum=54_A) 0     22.398   -17.162    112.62   L 
 N-N--0.415700(PDBName=N,ResName=VAL,ResNum=55_A) 0     21.372   -15.53     109.647  L 
 C-CT--0.087500(PDBName=CA,ResName=VAL,ResNum=55_A) 0     20.058   -15.306    109.002  L 
 C-C-0.597300(PDBName=C,ResName=VAL,ResNum=55_A) 0     20.284   -14.848    107.555  L 
 O-O--0.567900(PDBName=O,ResName=VAL,ResNum=55_A) 0     21.382   -14.413    107.234  L 
 C-CT-0.298500(PDBName=CB,ResName=VAL,ResNum=55_A) 0     19.241   -14.25     109.759  L 
 C-CT--0.319200(PDBName=CG1,ResName=VAL,ResNum=55_A) 0     18.904   -14.733    111.186  L 
 C-CT--0.319200(PDBName=CG2,ResName=VAL,ResNum=55_A) 0     19.984   -12.925    109.8    L 
 H-H1-0.096900(PDBName=HA,ResName=VAL,ResNum=55_A) 0     19.576   -16.177    108.98   L 
 H-HC-0.079100(PDBName=HG11,ResName=VAL,ResNum=55_A) 0     19.662   -15.281    111.529  L 
 H-HC-0.079100(PDBName=HG21,ResName=VAL,ResNum=55_A) 0     20.519   -12.819    108.962  L 
 H-HC--0.029700(PDBName=HB,ResName=VAL,ResNum=55_A) 0     18.371   -14.135    109.289  L 
 H-HC-0.079100(PDBName=HG12,ResName=VAL,ResNum=55_A) 0     18.764   -13.939    111.771  L 
 H-HC-0.079100(PDBName=HG13,ResName=VAL,ResNum=55_A) 0     18.074   -15.283    111.153  L 
 H-H-0.271900(PDBName=H,ResName=VAL,ResNum=55_A) 0     22.115   -14.803    109.672  L 
 H-HC-0.079100(PDBName=HG23,ResName=VAL,ResNum=55_A) 0     19.324   -12.177    109.873  L 
 H-HC-0.079100(PDBName=HG22,ResName=VAL,ResNum=55_A) 0     20.595   -12.912    110.592  L 
 N-N--0.254800(PDBName=N,ResName=PRO,ResNum=56_A) 0     19.283   -14.926    106.676  L 
 C-CT--0.026600(PDBName=CA,ResName=PRO,ResNum=56_A) 0     19.479   -14.462    105.298  L 
 C-C-0.589600(PDBName=C,ResName=PRO,ResNum=56_A) 0     19.695   -12.955    105.209  L 
 O-O--0.574800(PDBName=O,ResName=PRO,ResNum=56_A) 0     18.987   -12.203    105.872  L 
 C-CT--0.007000(PDBName=CB,ResName=PRO,ResNum=56_A) 0     18.185   -14.871    104.612  L 
 C-CT-0.018900(PDBName=CG,ResName=PRO,ResNum=56_A) 0     17.683   -16.023    105.449  L 
 C-CT-0.019200(PDBName=CD,ResName=PRO,ResNum=56_A) 0     17.94    -15.513    106.859  L 
 H-HC-0.021300(PDBName=HG2,ResName=PRO,ResNum=56_A) 0     16.719   -16.169    105.298  L 
 H-H1-0.064100(PDBName=HA,ResName=PRO,ResNum=56_A) 0     20.248   -14.959    104.862  L 
 H-H1-0.039100(PDBName=HD3,ResName=PRO,ResNum=56_A) 0     17.965   -16.254    107.508  L 
 H-H1-0.039100(PDBName=HD2,ResName=PRO,ResNum=56_A) 0     17.286   -14.823    107.114  L 
 H-HC-0.021300(PDBName=HG3,ResName=PRO,ResNum=56_A) 0     18.208   -16.838    105.268  L 
 H-HC-0.025300(PDBName=HB3,ResName=PRO,ResNum=56_A) 0     18.351   -15.168    103.673  L 
 H-HC-0.025300(PDBName=HB2,ResName=PRO,ResNum=56_A) 0     17.522   -14.123    104.615  L 
 N-N--0.415700(PDBName=N,ResName=TRP,ResNum=57_A) 0     20.674   -12.534    104.408  L 
 C-CT--0.027500(PDBName=CA,ResName=TRP,ResNum=57_A) 0     20.928   -11.101    104.184  L 
 C-C-0.597300(PDBName=C,ResName=TRP,ResNum=57_A) 0     19.666   -10.268    103.879  L 
 O-O--0.567900(PDBName=O,ResName=TRP,ResNum=57_A) 0     19.557   -9.181     104.437  L 
 C-CT--0.005000(PDBName=CB,ResName=TRP,ResNum=57_A) 0     21.943   -10.893    103.087  L 
 C-C*--0.141500(PDBName=CG,ResName=TRP,ResNum=57_A) 0     23.336   -11.148    103.534  L 
 C-CW--0.163800(PDBName=CD1,ResName=TRP,ResNum=57_A) 0     24.098   -12.245    103.231  L 
 C-CB-0.124300(PDBName=CD2,ResName=TRP,ResNum=57_A) 0     24.154   -10.297    104.349  L 
 N-NA--0.341800(PDBName=NE1,ResName=TRP,ResNum=57_A) 0     25.344   -12.11     103.787  L 
 C-CN-0.138000(PDBName=CE2,ResName=TRP,ResNum=57_A) 0     25.398   -10.944    104.51   L 
 C-CA--0.238700(PDBName=CE3,ResName=TRP,ResNum=57_A) 0     23.945   -9.07      105.01   L 
 C-CA--0.260100(PDBName=CZ2,ResName=TRP,ResNum=57_A) 0     26.432   -10.398    105.26   L 
 C-CA--0.197200(PDBName=CZ3,ResName=TRP,ResNum=57_A) 0     24.977   -8.521     105.749  L 
 C-CA--0.113400(PDBName=CH2,ResName=TRP,ResNum=57_A) 0     26.212   -9.19      105.869  L 
 H-HA-0.141700(PDBName=HH2,ResName=TRP,ResNum=57_A) 0     26.934   -8.763     106.412  L 
 H-H1-0.112300(PDBName=HA,ResName=TRP,ResNum=57_A) 0     21.335   -10.727    105.037  L 
 H-H-0.341200(PDBName=HE1,ResName=TRP,ResNum=57_A) 0     26.101   -12.759    103.684  L 
 H-HA-0.170000(PDBName=HE3,ResName=TRP,ResNum=57_A) 0     23.065   -8.604     104.945  L 
 H-HA-0.144700(PDBName=HZ3,ResName=TRP,ResNum=57_A) 0     24.847   -7.647     106.2    L 
 H-HA-0.157200(PDBName=HZ2,ResName=TRP,ResNum=57_A) 0     27.31    -10.885    105.346  L 
 H-H4-0.206200(PDBName=HD1,ResName=TRP,ResNum=57_A) 0     23.792   -13.022    102.689  L 
 H-H-0.271900(PDBName=H,ResName=TRP,ResNum=57_A) 0     21.231   -13.285    103.964  L 
[...]
 22846,103.2502555528\H,32.9456751455,-3.7479019234,103.7088554631\H,31
 .2917278334,1.3230856177,100.6684463069\H,30.1285459377,0.5610671406,1
 01.2898506221\H,32.2548403249,3.3832457246,101.5773690052\H,33.3489962
 594,2.3774424801,101.2883297605\H,31.2395682282,5.3382188017,102.25552
 35223\H,32.1705175547,4.9609703991,103.3852720896\H,25.9975668581,9.17
 15870068,96.097494701\H,26.9865995429,9.1840878442,95.004613823\H,25.0
 793863742,7.1218081597,97.0998755883\H,24.9192408559,5.6561856935,96.8
 043832239\H,21.1895176491,10.4192593725,94.0668597266\H,22.6099703874,
 10.5767392267,93.521875631\H,23.2506670078,15.0056834535,96.7311281641
 \H,22.0080026586,14.4370239744,96.0406010712\H,24.6377111104,12.043676
 2369,94.0013216929\H,25.0124729607,10.631566705,94.4049712637\H,16.768
 7190174,16.7051311471,100.2385742159\H,16.3297744603,15.5640348245,99.
 317685697\H,9.9680554595,17.7715485904,93.8392669812\H,11.4113450493,1
 7.9167701774,93.3876581059\H,4.420435467,-13.1653333958,112.9898803553
 \H,4.8017473543,-13.7900655825,111.6779926338\H,23.0601056389,18.03383
 16747,95.2180123254\H,22.7725214215,16.5716163871,94.9803067646\H,6.95
 65510627,-14.0353967896,119.633077245\H,5.7490160524,-14.7967822933,12
 0.138999054\H,17.8769252879,-3.2573516733,121.7268735326\H,16.43667143
 7,-2.8467542963,121.758182699\H,14.5830598922,-7.1854319273,121.624728
 5698\H,14.1110332217,-7.5688066634,123.0060159378\H,28.3117257888,1.66
 95837528,98.821647214\H,29.4946924604,0.7614586143,99.118850879\H,21.8
 07005283,2.506492865,119.4860619637\H,22.237402463,2.3629415268,118.02
 76292146\H,26.4052057866,12.7899044868,117.2539630936\H,26.9679729661,
 12.7679305188,115.8454766272\H,30.5522093147,-3.0181182399,104.4386542
 407\H,31.6870741647,-3.5786640905,105.2900914224\H,34.5780087528,-1.83
 91757996,101.4968481388\H,33.8923506081,-1.8792660557,100.1429324027\H
 ,32.6177473038,-8.9733959214,114.759935546\H,32.0817089918,-9.18311702
 73,116.1627609828\H,30.8824891911,-5.2026091438,113.0040118798\H,30.09
 9455386,-5.7885814003,114.1815984447\H,27.3397010208,-14.7845256327,11
 3.563940555\H,27.8582764005,-15.0903058275,112.1636557581\H,32.1177125
 592,-12.3010373257,108.0213389515\H,31.4686367414,-13.6695850396,107.9
 348821668\H,31.746294299,-15.7783419769,102.6342890021\H,32.0891019024
 ,-15.9141970885,104.0957297758\H,26.9463049928,-17.3069619675,111.6676
 721138\H,26.4490219922,-18.7458297194,111.7661977007\H,30.0292279458,-
 17.681066069,112.8169460333\H,28.8553009533,-18.322738054,112.11360814
 36\H,21.0567439426,-19.4838695388,110.4475540146\H,20.5412623721,-20.8
 611239338,110.1017445144\H,22.3214774971,-14.8153145989,105.5579497596
 \H,23.6035123625,-15.3462826731,104.9329444137\H,20.7979981603,-14.694
 3449829,101.2197810044\H,21.6612011232,-15.4906876078,102.1838879614\H
 ,2.1531634638,3.0805650784,111.5140176861\H,1.2876224933,1.8256339899,
 111.6211420559\H,17.8853273438,2.8437587096,103.837982595\H,16.4923371
 794,3.3566732164,103.6229859537\H,17.8963154838,2.5726420079,111.22673
 40212\H,19.1269653156,2.0712806016,111.959827882\H,-0.6962640174,-5.60
 01575385,106.7355900931\H,-1.6740928871,-4.953207456,105.7748660764\H,
 4.4276612995,-10.9684775359,110.1563628122\H,3.5807896905,-12.02754140
 9,110.8313725108\H,6.3134758831,-10.5636575482,95.4529048752\H,5.19666
 56568,-10.5012711508,94.4244204049\H,5.7552369789,-12.1647521953,93.22
 26297898\H,4.3117947315,-12.5197257874,92.9258854384\H,1.6944279052,1.
 7336281436,113.7393618042\H,1.0988655913,0.4909930819,114.376003631\H,
 16.8674053864,8.8120018292,122.4503018161\H,18.2802698081,8.2655692381
 ,122.6054487769\H,-0.3397240042,21.7102928402,101.488743983\H,-0.23384
 9481,21.3064148673,102.9484179201\H,-4.1833149992,18.5313838301,102.42
 15834577\H,-4.383840351,18.4649949235,103.9238047252\H,7.1135592701,16
 .8078266844,92.0319182393\H,7.8466366184,17.2190874251,93.2893769949\H
 ,7.9818478719,7.9876232972,96.3077174546\H,7.3770120745,9.0136937156,9
 5.3710506886\H,25.7672964688,-10.7199607163,93.5697273305\H,25.0704696
 288,-11.8116533629,94.3949274961\H,22.7756361557,-4.5347251758,92.0735
 222766\H,23.0812507281,-4.1540935735,90.6357750737\H,4.8273180688,20.0
 045874323,107.2536804559\H,3.659694464,19.0526457213,107.1908551842\H,
 24.0134647973,-14.6566321168,98.7019667811\H,23.1291576623,-13.8012526
 42,97.8179399299\H,3.0830577125,20.9475042709,105.8487793348\H,1.95189
 68009,20.8649326188,104.8238788755\H,7.3422072986,13.2079867032,93.751
 6991746\H,7.6039988962,14.5502168444,93.0628388256\H,18.5301183221,19.
 5774052835,112.2427146608\H,17.0321425084,19.3920502606,112.435655226\
 H,19.7237141407,19.9294317433,114.9370261928\H,18.4957605756,20.728018
 777,115.2968709671\H,20.5017884969,20.4229816365,112.1206534387\H,20.1
 672053023,21.214732156,113.3603331202\H,15.9992820285,22.7746504716,12
 1.4181748877\H,17.2418728381,22.7825262155,120.5721894213\H,24.7369611
 894,13.929335242,117.2090871961\H,23.6383771393,12.8918270717,117.3678
 10697\H,12.0009664562,5.1013300536,117.789476825\H,12.321426167,5.1120
 194403,119.2690701042\H,9.8498209182,-0.5258166569,117.1247392842\H,10
 .1076193915,-1.5077375215,118.2491710562\H,8.8777860833,-4.1978195288,
 120.9394747105\H,8.3271771369,-4.6295829393,119.5990158585\H,7.9054802
 459,-0.5617496587,116.8465374902\H,6.9350946251,0.4844794885,117.33883
 71686\H,5.809409012,-13.4205667767,115.2171859056\H,6.2166784083,-14.2
 235273879,113.9850168319\H,2.8118228118,-14.5620291268,111.7171648749\
 H,2.9415182207,-16.0304474037,112.0450438427\H,5.0085738025,-16.442612
 7267,113.1424920086\H,4.1463881005,-17.5627331956,113.6707231989\H,9.2
 094247615,-18.324166234,107.4379095684\H,10.0040651486,-19.028062082,1
 08.5416652046\H,6.5614088608,-12.3773110008,117.3377003461\H,5.8811941
 219,-13.6521870574,117.7603688378\H,15.8083226964,-6.0505000787,120.06
 10873978\H,16.1764587442,-5.1733423242,121.2498501013\H,12.9208554289,
 -9.1710725435,121.7402359999\H,12.695946975,-10.1609382839,120.6009062
 566\H,12.4615632042,-2.0148691192,118.6499865804\H,11.9436077389,-1.48
 34891259,119.9636965536\H,15.5050391188,0.413704419,114.5861051351\H,1
 5.284559108,-1.0791935269,114.4186328962\H,20.7405902408,8.9666357604,
 122.1212066179\H,20.3106279504,7.5379057445,121.8624950748\H,23.620795
 748,5.4233809773,119.7382807334\H,23.7410864599,4.0041113752,119.20599
 59237\H,25.8157187552,15.5666833613,115.7181966179\H,24.4498681028,14.
 974254867,115.3980630691\H,27.4440753478,16.1156671236,113.7003485185\
 H,27.0265345561,14.7624558534,114.278240373\H,31.595955308,10.09237549
 79,111.8606549661\H,32.7454287204,9.5102141376,111.0632789174\H,30.958
 35745,7.3648985984,113.9694939438\H,31.9012681364,7.8110833948,112.854
 0549781\H,27.893770095,17.3705112379,111.4991289075\H,28.5038458388,15
 .9967942167,111.6642334298\H,28.6570744693,15.0447178227,115.478256735
 1\H,28.7806663888,13.7698786727,116.2857795343\H,34.2145613169,11.5834
 97433,111.5384482888\H,34.3204694385,12.5570917297,110.3859486736\H,34
 .7604498437,14.4264304371,110.9959701239\H,34.4893602411,14.4402508406
 ,109.5171199588\H,33.7527155811,11.1223044408,109.1724901419\H,32.9559
 254961,9.8733129307,108.8935622928\H,29.570223447,15.2712489594,104.63
 21326957\H,28.7997899135,14.247023663,105.4256930084\H,32.0535648048,8
 .1057971602,106.956987296\H,33.3870954529,7.4031487236,107.0639107162\
 H,27.9160636405,-0.1341645189,116.967927342\H,29.1573718591,-0.2209313
 124,116.1050127042\H,30.3346468655,-2.4057714507,115.6484347206\H,30.2
 633251624,-1.4637893523,114.4637301112\H,21.5501651514,2.1428777915,12
 1.6191324616\H,20.4833518297,1.1383375759,121.2307230545\H,13.73253699
 1,-10.1521353228,118.5479166643\H,12.5717714251,-11.020667771,118.0695
 15575\H,13.718198997,-22.6671124974,117.4285204464\H,12.4640000782,-21
 .9563503174,116.9307823913\H,17.9143900198,-22.5010431732,113.20483962
 21\H,18.1206198823,-22.4948737953,114.7175242486\H,12.2138228321,-24.0
 059589347,116.2443563939\H,11.8833433874,-25.477719744,116.1031868011\
 H,11.5598380287,-24.8136684961,108.2913672403\H,12.1269230852,-25.7784
 423478,107.2722041639\H,18.2768613184,-24.2371804586,111.656126967\H,1
 9.2776507622,-23.9516019289,112.7507371552\H,9.4990399824,-23.07598070
 34,105.987218116\H,9.9787940323,-24.0878798217,107.0244747374\H,10.245
 4644018,-21.5812500967,104.1110144453\H,9.8069819234,-22.9601995294,10
 3.637932647\H,23.2228625867,-19.7714046375,108.2376157212\H,22.9045609
 185,-20.5191146105,109.5048777154\H,21.7912347853,-17.9568772237,102.1
 985712529\H,20.4057102684,-17.3662806583,102.0279296012\H,15.696907630
 2,-26.8979248975,105.1989828111\H,14.4655314077,-27.2558545257,106.013
 1031001\H,16.9886341072,-24.216914791,104.9128031893\H,16.1759082315,-
 25.0791376598,105.868285945\H,19.063875735,-15.8596276358,100.75100178
 31\H,18.3974999871,-14.7220787409,99.9933637911\H,18.4272869727,-17.69
 40002678,100.3056269177\H,18.6309044675,-18.2903713589,101.6770274358\
 H,21.7262854314,-13.7487799699,93.421120886\H,22.4543417804,-12.423249
 1738,93.3452805855\H,20.6016110245,-10.4232762791,93.013355144\H,19.42
 08124038,-10.9800684866,93.7823459806\H,16.781993474,-15.1166422299,93
 .7433446108\H,18.0971967391,-15.6649540214,93.2413050791\H,13.74269647
 09,-11.6843738272,98.4732938203\H,13.4186859882,-10.8927179748,97.2150
 253508\H,17.0704483754,-7.6609814146,92.997378514\H,15.8058397961,-6.8
 882993328,92.6342665242\H,9.711952253,-10.626446887,93.4797105004\H,10
 .2579481147,-10.9426551792,92.1027065947\H,6.0147157998,1.4989583147,9
 5.5126799276\H,5.7824058406,2.9181036459,95.9446042702\H,8.1399621854,
 1.7453350073,94.4667828096\H,7.9637356272,0.2384936649,94.5362072213\H
 ,8.5881410588,-5.6226365216,92.4045829857\H,8.035283765,-6.6389403763,
 93.3860922949\H,4.5033407127,-1.072079182,102.9206401115\H,3.032612690
 4,-1.3287891418,103.1464012752\H,3.6347369856,-1.504874906,99.77900966
 57\H,3.9129102144,-2.8463480731,100.4380132712\H,3.2900076453,5.093858
 8997,110.6833124238\H,3.163587235,4.2425433568,109.4384320182\H,-0.203
 9004083,12.3474572185,113.1018785686\H,0.4021775886,11.4784259786,114.
 1901686463\H,4.233655713,6.8547623119,118.9035830352\H,5.694997155,6.7
 958165208,118.4749713517\H,1.1061755465,8.6734625342,121.0360820156\H,
 2.0733438756,7.788563139,120.3149993736\H,0.7101396548,12.3110842055,1
 18.154515143\H,1.2312408418,11.2774456155,119.1649787863\H,0.123213232
 3,13.9749070192,116.5802213774\H,0.5012399712,12.8747572596,115.619674
 794\H,0.3127199836,4.9678773909,120.6551511199\H,1.1934516427,6.108960
 061,121.1258702718\H,7.6907029663,7.9233001724,118.4961500254\H,7.3317
 98785,7.8525966343,117.0139537599\H,4.6407958049,4.5668082901,118.6593
 617193\H,5.3679608001,3.2907708154,119.0187912875\H,5.8119007621,2.758
 3931084,114.1583196963\H,4.6678734376,2.3164219869,113.2808848958\H,-2
 .0487575903,-8.6106779433,104.9371207735\H,-1.3504858094,-7.4479956353
 ,105.6223227769\H,3.4223793664,-3.0935917689,102.3680775033\H,4.024153
 1746,-4.4762525975,102.2022341024\H,2.3657586961,-11.2996730981,108.88
 11202623\H,1.0960179537,-12.0690876997,108.6077735073\H,1.0122189517,-
 4.4133093477,107.6744678337\H,0.7865622588,-5.4244362114,108.783040503
 \H,4.6607021869,-6.0314035612,100.9415069434\H,3.5418737986,-5.1601677
 197,100.4275216286\H,6.67018992,-8.8508229235,94.0420356401\H,8.171776
 9686,-8.6470202172,93.9179785208\H,8.3542750215,-12.0521224764,96.0208
 662397\H,7.3031410876,-12.2497201722,94.9605898264\H,8.1665364447,-12.
 2849863087,92.955215398\H,7.6605127275,-13.6846655526,93.3076305551\H,
 10.737770329,-24.2731965022,101.8491849975\H,9.4000808545,-23.77734150
 78,101.3329361574\H,9.2607065843,-15.4352796275,93.5739846761\H,7.9097
 719949,-16.0275179233,93.911122597\H,5.0640897026,-17.7248345179,101.2
 938689375\H,5.0572966861,-18.9975671076,100.4547390459\H,5.1358802678,
 -16.2527203922,103.5198000936\H,4.7838743189,-16.6231278785,104.971434
 2745\H,2.0726405893,-2.4623290221,108.1037665067\H,2.8197007239,-3.785
 3335253,108.1545722447\H,0.7731861797,-7.301752827,110.1600763277\H,-0
 .0768322728,-8.2574513443,110.9829487285\H,0.8350588786,-0.1808771065,
 110.3305941944\H,-0.5527193789,0.347656793,110.6227246895\H,6.40199395
 04,2.4715647479,122.6442569383\H,6.2621408804,3.2506350945,121.3535811
 543\H,8.6315154414,8.8599155226,120.1029239434\H,9.8498895868,8.004904
 3639,119.7841381561\H,16.4509199473,11.1930959666,122.4564685824\H,15.
 8673180359,10.7971095695,121.1204975576\H,17.3077809537,16.4745950941,
 116.5960424754\H,17.3914047389,15.1095805986,115.9428499722\H,13.52336
 49488,18.3864782469,117.450488985\H,13.7672278368,17.25113386,118.4149
 772426\H,16.9240742001,21.0285587715,121.7785768885\H,17.7267662888,19
 .7930907989,121.428103642\H,17.3047899051,19.1976200313,115.9706725176
 \H,15.9128550307,19.7833927533,116.1621918996\H,13.0166995122,21.32060
 62067,111.8266931082\H,11.7562204406,21.3307483211,112.6717054563\H,17
 .1637753911,21.358925394,113.2437443393\H,16.5731607425,21.36722064,11
 4.6400065658\H,11.3686230483,18.8471080376,119.8359081365\H,11.6389320
 776,17.7535634496,118.8408937539\H,9.3971931798,17.3566812177,118.9215
 941701\H,8.6858959556,16.0997192752,118.4311719816\H,7.0697020974,20.7
 055972974,115.0458517669\H,7.9255803233,19.4680039461,115.0679399735\H
 ,-1.315385363,18.8923921009,105.6682953877\H,-1.049378123,17.458516741
 5,105.2370117436\H,-4.6132252618,16.7455991971,105.8933024658\H,-3.233
 0216147,16.8733427153,105.2992622473\H,-4.6182451525,15.5824646415,108
 .1366654473\H,-3.6123542803,15.0404163885,107.1372944945\H,-3.62407265
 37,12.7362523451,101.8891616897\H,-3.7125674789,13.0056949345,100.3821
 950201\H,0.6925007229,12.7881901259,110.6616763486\H,-0.4211738278,11.
 7407407021,110.6076299236\H,-3.027706272,13.3815694585,106.1788703948\
 H,-4.4815014464,13.3831634362,105.7593814258\H,-3.2129137945,12.204900
 0701,104.1328092684\H,-1.994966479,11.5180581965,103.5432793103\H,6.03
 49292195,6.9963171593,94.9391488739\H,5.8794952302,5.4986643611,94.797
 1261531\H,1.620684898,9.4251596855,95.293254017\H,1.4466019872,7.93294
 79614,95.541083958\H,12.2409619715,4.4108529334,94.318895037\H,12.5061
 183396,3.8287853529,95.6914526812\H,10.1863291769,3.4031627339,94.6882
 839665\H,9.6115931651,2.95851632,93.3647436813\H,11.7673131555,2.71404
 92643,102.0240590104\H,12.8831367161,2.1073537091,102.8390927289\H,13.
 2093800874,-2.1249888207,98.2635111395\H,12.3030896729,-3.1112634781,9
 7.5324572565\H,15.3648527126,-4.6843070059,93.3084056493\H,14.31568743
 73,-5.7704649975,93.333359026\H,13.5284692926,-3.827783867,93.52463398
 24\H,12.951378481,-4.0234001154,94.9086579789\H,21.5887482336,-6.18760
 98961,91.4086528586\H,21.5470308699,-7.2596094204,92.4892244853\H,19.4
 720849126,-7.3561425645,92.4429227911\H,19.0233712039,-8.6753726015,93
 .0516636999\H,22.2863254557,-9.602641815,93.4033148294\H,23.3383577556
 ,-10.697657249,93.4534884277\H,29.5731173662,-7.381189709,91.407087718
 1\H,29.3639281287,-8.0799024922,92.7397783276\H,22.2291836555,-3.99467
 38876,94.3913960865\H,23.693397929,-4.3128314446,94.1158741387\H,27.57
 56917154,-8.8630640497,92.229484292\H,26.2010059008,-9.2863373095,91.7
 492214263\H,23.2986769873,-14.6485698902,100.9264765194\H,24.706225787
 5,-15.0831811029,101.3232248081\H,28.8179379789,-14.4171644732,101.302
 5590626\H,27.9476992122,-13.7796962392,102.3771159107\H,33.1961107477,
 -10.8807478507,96.9163341722\H,34.1446242045,-11.864809982,97.58424211
 74\H,35.8931162328,-3.5310994683,99.8029896833\H,35.5669779819,-4.6621
 942897,98.8268948262\H,35.6185108787,-5.0681359065,93.5649883938\H,34.
 4078233,-5.0073319197,94.4769777445\H,39.2524083436,-7.7928963122,99.1
 866147111\H,39.9739373058,-7.0105562743,100.2557165055\H,37.3001285589
 ,-5.710923207,100.3291775085\H,36.6860326129,-6.6893739357,101.3123566
 968\H,34.2091886114,-15.1529334931,104.2745060826\H,33.9505686482,-15.
 3326603026,105.7664417241\H,37.2421962533,-9.1583782775,102.1968287129
 \H,38.0957360293,-8.2477626315,101.3363520925\H,37.0312783804,-11.6535
 030537,97.6016257019\H,37.581487475,-11.0645812136,96.3274376669\H,34.
 9157218051,-6.3763931607,108.8835824844\H,35.7060127833,-7.1184034652,
 109.9488052917\H,35.9386562912,-1.4762335137,105.3208792079\H,35.72186
 39083,-1.4862757968,103.8412170667\H,35.395281499,-4.3567444394,103.82
 35527929\H,36.587189101,-3.5489277359,104.2760568882\H,26.3723084143,-
 14.9751518024,103.2034950387\H,25.2284909626,-15.8914612248,103.584932
 9639\H,26.0030044507,-15.7791111804,105.6410332265\H,24.8110967313,-16
 .3415808555,106.415067181\H,14.1144164714,10.4954701973,93.4592801472\
 H,12.89600263,9.7597687885,93.9865479486\H,5.4333635705,12.5956179573,
 95.3313946226\H,6.6836196928,11.8746937818,95.7980384899\H,3.371576783
 ,13.4085544741,96.9749069134\H,4.2063011203,14.2690093686,96.070444057
 6\H,-2.190647298,12.2929575504,98.7030011337\H,-3.1232993351,12.983911
 7666,97.7352680465\H,-0.6712976551,11.2033793707,96.6968561122\H,-0.27
 43425081,10.2715509311,95.5614676688\H,2.9237034837,11.9585621361,95.5
 767131418\H,1.4546233805,11.598120862,95.3829102315\H,-2.7979099103,15
 .717691452,94.8734763692\H,-3.5148736058,14.4064010039,94.6658710329\H
 ,1.2118285285,21.3274577486,98.46376506\H,1.6328159658,20.3665217728,9
 7.3725073087\H,-1.9607532261,13.943728605,95.9860411519\H,-1.856713523
 4,12.4603248872,95.6467335246\H,0.2041656789,19.3469749653,104.1783369
 38\H,0.7981519457,19.484387089,102.7559906873\H,-2.8465329247,16.10310
 70032,99.5931991323\H,-2.7198176666,14.7232243269,98.9610792739\H,2.50
 73435699,18.3648445007,100.9809087748\H,3.8972371558,18.9842846415,101
 .0184190312\O,13.2156056473,-19.5204920208,110.2618392014\H,13.2835213
 589,-20.0462818837,111.0742792213\H,12.2688703053,-19.2599973046,110.2
 467772459\O,25.0442353675,6.3303295348,115.2164672995\H,24.7587635549,
 6.4502677533,114.2959796201\H,25.96443171,6.6851468928,115.2194886078\
 O,15.9377391884,-2.8601581421,112.5946146577\H,16.6087448451,-2.160200
 6072,112.4463782367\H,16.1599330581,-3.5215801561,111.9171811316\O,14.
 1943848548,12.0455296303,104.5209308873\H,13.8742590529,11.2224732323,
 104.8990920804\H,13.7113781,12.7407468122,105.0248980352\O,13.31567550
 8,17.2653017899,102.8988154579\H,13.3102474848,16.3629436434,103.29299
 50919\H,13.3732567465,17.8219196821,103.7050612949\O,15.7591222695,4.9
 448983519,108.5160455237\H,15.4086328887,4.1444261412,108.0818497098\H
 ,16.438270483,4.5842570803,109.1074554502\O,8.6032663239,12.256584976,
 107.6456917219\H,8.8609871497,11.8330105451,106.8152069839\H,8.2498917
 576,13.1210038609,107.3655157918\O,21.881072889,14.6041665428,99.21960
 7079\H,21.5122078999,15.4949364691,99.2703228021\H,22.7848601602,14.74
 20212815,98.8853815816\O,12.3505813719,-8.4665332938,99.0195574945\H,1
 2.6409894979,-9.3736275505,98.7853178315\H,13.1225005464,-8.0935178182
 ,99.4645325944\O,14.3627323336,-13.2980264261,98.9488376763\H,13.81291
 3652,-14.0972821676,99.0089370533\H,15.2657765956,-13.6541112698,98.97
 24974301\O,13.7683586347,-7.4034174793,104.3292367775\H,13.2887098019,
 -8.2446410703,104.4226720275\H,14.6930210176,-7.6951581408,104.2391194
 696\O,17.7383554211,-0.8848509223,111.9905814421\H,17.8281941552,0.059
 7853265,112.2144972889\H,18.3345366937,-0.9553805749,111.2253363828\O,
 13.6579538549,18.7241382588,105.1333772341\H,13.9127410204,19.54527953
 97,104.6516383587\H,13.6946028508,19.0160581852,106.0544378934\O,25.94
 73857805,-3.5446853552,109.7124997394\H,26.4414119522,-3.8858474515,11
 0.4719814513\H,26.3650351367,-2.6800348743,109.5522311418\\Version=AS6
 4L-G09RevD.01\HF=-18.1540419\RMSD=0.000e+00\RMSF=8.693e-06\Dipole=-34.
 6544146,19.2364545,-4.9583422\PG=C01 [X(C1167H2272N312O596S6)]\\@


 EVERYTHING'S GOT A MORAL, IF ONLY YOU CAN FIND IT.

                                    -- LEWIS CARROL, ALICE IN WONDERLAND
 Job cpu time:       0 days  0 hours 39 minutes 52.4 seconds.
 File lengths (MBytes):  RWF=     40 Int=      0 D2E=      0 Chk=     36 Scr=      1
 Normal termination of Gaussian 09 at Tue Oct 28 17:59:32 2014.
