 Entering Gaussian System, Link 0=g09
 Initial command:
 //g09/l1.exe "/scratch/Gau-6761.inp" -scrdir="/scratch/"
 Default CPUs for threads:  0,1,2,3
 Default linda workers:  simone,louise
 Default is to use   4 SMP processors on each worker.
 Entering Link 1 = //g09/l1.exe PID=      6762.
  
 Copyright (c) 1988,1990,1992,1993,1995,1998,2003,2009,2013,
            Gaussian, Inc.  All Rights Reserved.
  
 This is part of the Gaussian(R) 09 program.  It is based on
 the Gaussian(R) 03 system (copyright 2003, Gaussian, Inc.),
 the Gaussian(R) 98 system (copyright 1998, Gaussian, Inc.),
 the Gaussian(R) 94 system (copyright 1995, Gaussian, Inc.),
 the Gaussian 92(TM) system (copyright 1992, Gaussian, Inc.),
 the Gaussian 90(TM) system (copyright 1990, Gaussian, Inc.),
 the Gaussian 88(TM) system (copyright 1988, Gaussian, Inc.),
 the Gaussian 86(TM) system (copyright 1986, Carnegie Mellon
 University), and the Gaussian 82(TM) system (copyright 1983,
 Carnegie Mellon University). Gaussian is a federally registered
 trademark of Gaussian, Inc.
  
 This software contains proprietary and confidential information,
 including trade secrets, belonging to Gaussian, Inc.
  
 This software is provided under written license and may be
 used, copied, transmitted, or stored only in accord with that
 written license.
  
 The following legend is applicable only to US Government
 contracts under FAR:
  
                    RESTRICTED RIGHTS LEGEND
  
 Use, reproduction and disclosure by the US Government is
 subject to restrictions as set forth in subparagraphs (a)
 and (c) of the Commercial Computer Software - Restricted
 Rights clause in FAR 52.227-19.
  
 Gaussian, Inc.
 340 Quinnipiac St., Bldg. 40, Wallingford CT 06492
  
  
 ---------------------------------------------------------------
 Warning -- This program may not be used in any manner that
 competes with the business of Gaussian, Inc. or will provide
 assistance to any competitor of Gaussian, Inc.  The licensee
 of this program is prohibited from giving any competitor of
 Gaussian, Inc. access to this program.  By using this program,
 the user acknowledges that Gaussian, Inc. is engaged in the
 business of creating and licensing software in the field of
 computational chemistry and represents and warrants to the
 licensee that it is not a competitor of Gaussian, Inc. and that
 it will not use this program in any manner prohibited above.
 ---------------------------------------------------------------
  

 Cite this work as:
 Gaussian 09, Revision D.01,
 M. J. Frisch, G. W. Trucks, H. B. Schlegel, G. E. Scuseria, 
 M. A. Robb, J. R. Cheeseman, G. Scalmani, V. Barone, B. Mennucci, 
 G. A. Petersson, H. Nakatsuji, M. Caricato, X. Li, H. P. Hratchian, 
 A. F. Izmaylov, J. Bloino, G. Zheng, J. L. Sonnenberg, M. Hada, 
 M. Ehara, K. Toyota, R. Fukuda, J. Hasegawa, M. Ishida, T. Nakajima, 
 Y. Honda, O. Kitao, H. Nakai, T. Vreven, J. A. Montgomery, Jr., 
 J. E. Peralta, F. Ogliaro, M. Bearpark, J. J. Heyd, E. Brothers, 
 K. N. Kudin, V. N. Staroverov, T. Keith, R. Kobayashi, J. Normand, 
 K. Raghavachari, A. Rendell, J. C. Burant, S. S. Iyengar, J. Tomasi, 
 M. Cossi, N. Rega, J. M. Millam, M. Klene, J. E. Knox, J. B. Cross, 
 V. Bakken, C. Adamo, J. Jaramillo, R. Gomperts, R. E. Stratmann, 
 O. Yazyev, A. J. Austin, R. Cammi, C. Pomelli, J. W. Ochterski, 
 R. L. Martin, K. Morokuma, V. G. Zakrzewski, G. A. Voth, 
 P. Salvador, J. J. Dannenberg, S. Dapprich, A. D. Daniels, 
 O. Farkas, J. B. Foresman, J. V. Ortiz, J. Cioslowski, 
 and D. J. Fox, Gaussian, Inc., Wallingford CT, 2013.
 
 ******************************************
 Gaussian 09:  AS64L-G09RevD.01 24-Apr-2013
                18-Oct-2014 
 ******************************************
 SetLPE:  input flags=""
 SetLPE:    new flags=" -nodelist 'simone louise'"
 Will use up to    2 processors via Linda.
 SetSPE:  set environment variable "MP_BIND" = "yes"
 SetSPE:  set environment variable "MP_BLIST" = "0,1,2,3"
 -------------------------------------------------------
 #P hf/6-31G* Opt=(Tight,CalcFC) Freq SCF(Conver=8) Test
 -------------------------------------------------------
 1/7=10,10=4,18=20,19=15,38=1/1,3;
 2/9=110,12=2,17=6,18=5,40=1/2;
 3/5=1,6=6,7=1,11=9,16=1,25=1,30=1,71=2,140=1/1,2,3;
 4//1;
 5/5=2,6=8,38=5/2;
 8/6=4,10=90,11=11/1;
 11/6=1,8=1,9=11,15=111,16=1/1,2,10;
 10/6=1,13=1/2;
 6/7=2,8=2,9=2,10=2,28=1/1;
 7/10=1,18=20,25=1/1,2,3,16;
 1/7=10,10=4,18=20,19=15/3(2);
 2/9=110/2;
 99//99;
 2/9=110/2;
 3/5=1,6=6,7=1,11=9,16=1,25=1,30=1,71=1/1,2,3;
 4/5=5,16=3,69=1/1;
 5/5=2,6=8,38=5/2;
 7//1,2,3,16;
 1/7=10,18=20,19=15/3(-5);
 2/9=110/2;
 6/7=2,8=2,9=2,10=2,19=2,28=1/1;
 99/9=1/99;
 Leave Link    1 at Sat Oct 18 15:06:29 2014, MaxMem=           0 cpu:         0.2
 (Enter //g09/l101.exe)
 -------------------------------------------------
 Gaussian optimization output to be used by R.E.D.
 -------------------------------------------------
 Symbolic Z-matrix:
 Charge =  0 Multiplicity = 1
 C                     17.279    1.091     105.756 
 N                     16.292    0.652     105.057 
 C                     15.072    0.969     105.713 
 C                     15.478    1.663     106.9 
 O                     14.671    2.111     107.758 
 N                     16.86     1.725     106.906 
 C                     17.393    2.02      108.109 
 H                     18.139    1.291     108.349 
 H                     16.622    1.989     108.85 
 C                     17.997    3.331     108.112 
 O                     18.243    4.002     109.351 
 C                     18.672    0.781     105.505 
 H                     19.155    1.723     105.662 
 N                     19.105   -0.335     106.432 
 H                     18.35    -0.979     106.553 
 C                     19.054    0.351     104.143 
 H                     20.099    0.123     104.139 
 H                     18.346   -0.376     103.804 
 O                     18.847    1.577     103.399 
 H                     19.697    1.958     103.168 
 C                     13.775    0.696     105.335 
 H                     13.016    1.044     106.004 
 C                     13.311    0.021     104.188 
 C                     14.115   -0.543     103.135 
 H                     15.18    -0.46      103.197 
 C                     11.922   -0.138     104.022 
 H                     11.279    0.263     104.777 
 C                     13.541   -1.208     102.014 
 H                     14.153   -1.623     101.24 
 C                     11.338   -0.776     102.95 
 H                     10.273   -0.859     102.896 
 C                     12.106   -1.3       101.963 
 O                     11.564   -1.942     100.88 
 H                     10.607   -1.95      100.959 
 C                     18.376    4.007     106.781 
 H                     19.194    3.481     106.335 
 H                     17.536    3.988     106.119 
 H                     18.663    5.021     106.966 
 C                     20.258   -1.036     105.85 
 H                     20.988   -0.32      105.532 
 H                     20.69    -1.684     106.584 
 H                     19.937   -1.614     105.009 
 
 NAtoms=     42 NQM=       42 NQMF=       0 NMMI=      0 NMMIF=      0
                NMic=       0 NMicF=      0.
                    Isotopes and Nuclear Properties:
 (Nuclear quadrupole moments (NQMom) in fm**2, nuclear magnetic moments (NMagM)
  in nuclear magnetons)

  Atom         1           2           3           4           5           6           7           8           9          10
 IAtWgt=          12          14          12          12          16          14          12           1           1          12
 AtmWgt=  12.0000000  14.0030740  12.0000000  12.0000000  15.9949146  14.0030740  12.0000000   1.0078250   1.0078250  12.0000000
 NucSpn=           0           2           0           0           0           2           0           1           1           0
 AtZEff=   0.0000000   0.0000000   0.0000000   0.0000000   0.0000000   0.0000000   0.0000000   0.0000000   0.0000000   0.0000000
 NQMom=    0.0000000   2.0440000   0.0000000   0.0000000   0.0000000   2.0440000   0.0000000   0.0000000   0.0000000   0.0000000
 NMagM=    0.0000000   0.4037610   0.0000000   0.0000000   0.0000000   0.4037610   0.0000000   2.7928460   2.7928460   0.0000000
 AtZNuc=   6.0000000   7.0000000   6.0000000   6.0000000   8.0000000   7.0000000   6.0000000   1.0000000   1.0000000   6.0000000

  Atom        11          12          13          14          15          16          17          18          19          20
 IAtWgt=          16          12           1          14           1          12           1           1          16           1
 AtmWgt=  15.9949146  12.0000000   1.0078250  14.0030740   1.0078250  12.0000000   1.0078250   1.0078250  15.9949146   1.0078250
 NucSpn=           0           0           1           2           1           0           1           1           0           1
 AtZEff=   0.0000000   0.0000000   0.0000000   0.0000000   0.0000000   0.0000000   0.0000000   0.0000000   0.0000000   0.0000000
 NQMom=    0.0000000   0.0000000   0.0000000   2.0440000   0.0000000   0.0000000   0.0000000   0.0000000   0.0000000   0.0000000
 NMagM=    0.0000000   0.0000000   2.7928460   0.4037610   2.7928460   0.0000000   2.7928460   2.7928460   0.0000000   2.7928460
 AtZNuc=   8.0000000   6.0000000   1.0000000   7.0000000   1.0000000   6.0000000   1.0000000   1.0000000   8.0000000   1.0000000

  Atom        21          22          23          24          25          26          27          28          29          30
 IAtWgt=          12           1          12          12           1          12           1          12           1          12
 AtmWgt=  12.0000000   1.0078250  12.0000000  12.0000000   1.0078250  12.0000000   1.0078250  12.0000000   1.0078250  12.0000000
 NucSpn=           0           1           0           0           1           0           1           0           1           0
 AtZEff=   0.0000000   0.0000000   0.0000000   0.0000000   0.0000000   0.0000000   0.0000000   0.0000000   0.0000000   0.0000000
 NQMom=    0.0000000   0.0000000   0.0000000   0.0000000   0.0000000   0.0000000   0.0000000   0.0000000   0.0000000   0.0000000
 NMagM=    0.0000000   2.7928460   0.0000000   0.0000000   2.7928460   0.0000000   2.7928460   0.0000000   2.7928460   0.0000000
 AtZNuc=   6.0000000   1.0000000   6.0000000   6.0000000   1.0000000   6.0000000   1.0000000   6.0000000   1.0000000   6.0000000

  Atom        31          32          33          34          35          36          37          38          39          40
 IAtWgt=           1          12          16           1          12           1           1           1          12           1
 AtmWgt=   1.0078250  12.0000000  15.9949146   1.0078250  12.0000000   1.0078250   1.0078250   1.0078250  12.0000000   1.0078250
 NucSpn=           1           0           0           1           0           1           1           1           0           1
 AtZEff=   0.0000000   0.0000000   0.0000000   0.0000000   0.0000000   0.0000000   0.0000000   0.0000000   0.0000000   0.0000000
 NQMom=    0.0000000   0.0000000   0.0000000   0.0000000   0.0000000   0.0000000   0.0000000   0.0000000   0.0000000   0.0000000
 NMagM=    2.7928460   0.0000000   0.0000000   2.7928460   0.0000000   2.7928460   2.7928460   2.7928460   0.0000000   2.7928460
 AtZNuc=   1.0000000   6.0000000   8.0000000   1.0000000   6.0000000   1.0000000   1.0000000   1.0000000   6.0000000   1.0000000

  Atom        41          42
 IAtWgt=           1           1
 AtmWgt=   1.0078250   1.0078250
 NucSpn=           1           1
 AtZEff=   0.0000000   0.0000000
 NQMom=    0.0000000   0.0000000
 NMagM=    2.7928460   2.7928460
 AtZNuc=   1.0000000   1.0000000
 Leave Link  101 at Sat Oct 18 15:06:29 2014, MaxMem=   536870912 cpu:         0.6
 (Enter //g09/l103.exe)

 GradGradGradGradGradGradGradGradGradGradGradGradGradGradGradGradGradGrad
 Berny optimization.
 Initialization pass.
                           ----------------------------
                           !    Initial Parameters    !
                           ! (Angstroms and Degrees)  !
 --------------------------                            --------------------------
 ! Name  Definition              Value          Derivative Info.                !
 --------------------------------------------------------------------------------
 ! R1    R(1,2)                  1.2867         calculate D2E/DX2 analytically  !
 ! R2    R(1,6)                  1.3784         calculate D2E/DX2 analytically  !
 ! R3    R(1,12)                 1.449          calculate D2E/DX2 analytically  !
 ! R4    R(2,3)                  1.421          calculate D2E/DX2 analytically  !
 ! R5    R(3,4)                  1.4337         calculate D2E/DX2 analytically  !
 ! R6    R(3,21)                 1.3783         calculate D2E/DX2 analytically  !
 ! R7    R(4,5)                  1.2602         calculate D2E/DX2 analytically  !
 ! R8    R(4,6)                  1.3834         calculate D2E/DX2 analytically  !
 ! R9    R(6,7)                  1.3485         calculate D2E/DX2 analytically  !
 ! R10   R(7,8)                  1.0703         calculate D2E/DX2 analytically  !
 ! R11   R(7,9)                  1.0698         calculate D2E/DX2 analytically  !
 ! R12   R(7,10)                 1.4434         calculate D2E/DX2 analytically  !
 ! R13   R(10,11)                1.4303         calculate D2E/DX2 analytically  !
 ! R14   R(10,35)                1.5402         calculate D2E/DX2 analytically  !
 ! R15   R(12,13)                1.0702         calculate D2E/DX2 analytically  !
 ! R16   R(12,14)                1.514          calculate D2E/DX2 analytically  !
 ! R17   R(12,16)                1.4785         calculate D2E/DX2 analytically  !
 ! R18   R(14,15)                0.9997         calculate D2E/DX2 analytically  !
 ! R19   R(14,39)                1.4695         calculate D2E/DX2 analytically  !
 ! R20   R(16,17)                1.0696         calculate D2E/DX2 analytically  !
 ! R21   R(16,18)                1.0699         calculate D2E/DX2 analytically  !
 ! R22   R(16,19)                1.449          calculate D2E/DX2 analytically  !
 ! R23   R(19,20)                0.9597         calculate D2E/DX2 analytically  !
 ! R24   R(21,22)                1.0699         calculate D2E/DX2 analytically  !
 ! R25   R(21,23)                1.4094         calculate D2E/DX2 analytically  !
 ! R26   R(23,24)                1.4399         calculate D2E/DX2 analytically  !
 ! R27   R(23,26)                1.4079         calculate D2E/DX2 analytically  !
 ! R28   R(24,25)                1.07           calculate D2E/DX2 analytically  !
 ! R29   R(24,28)                1.4242         calculate D2E/DX2 analytically  !
 ! R30   R(26,27)                1.0697         calculate D2E/DX2 analytically  !
 ! R31   R(26,30)                1.3774         calculate D2E/DX2 analytically  !
 ! R32   R(28,29)                1.0704         calculate D2E/DX2 analytically  !
 ! R33   R(28,32)                1.4389         calculate D2E/DX2 analytically  !
 ! R34   R(30,31)                1.0696         calculate D2E/DX2 analytically  !
 ! R35   R(30,32)                1.3559         calculate D2E/DX2 analytically  !
 ! R36   R(32,33)                1.3707         calculate D2E/DX2 analytically  !
 ! R37   R(33,34)                0.9603         calculate D2E/DX2 analytically  !
 ! R38   R(35,36)                1.0699         calculate D2E/DX2 analytically  !
 ! R39   R(35,37)                1.0697         calculate D2E/DX2 analytically  !
 ! R40   R(35,38)                1.0699         calculate D2E/DX2 analytically  !
 ! R41   R(39,40)                1.0708         calculate D2E/DX2 analytically  !
 ! R42   R(39,41)                1.0702         calculate D2E/DX2 analytically  !
 ! R43   R(39,42)                1.0698         calculate D2E/DX2 analytically  !
 ! A1    A(2,1,6)              112.1479         calculate D2E/DX2 analytically  !
 ! A2    A(2,1,12)             124.7755         calculate D2E/DX2 analytically  !
 ! A3    A(6,1,12)             122.3543         calculate D2E/DX2 analytically  !
 ! A4    A(1,2,3)              109.3711         calculate D2E/DX2 analytically  !
 ! A5    A(2,3,4)              104.3044         calculate D2E/DX2 analytically  !
 ! A6    A(2,3,21)             129.5783         calculate D2E/DX2 analytically  !
 ! A7    A(4,3,21)             126.1172         calculate D2E/DX2 analytically  !
 ! A8    A(3,4,5)              123.6718         calculate D2E/DX2 analytically  !
 ! A9    A(3,4,6)              107.9499         calculate D2E/DX2 analytically  !
 ! A10   A(5,4,6)              128.3773         calculate D2E/DX2 analytically  !
 ! A11   A(1,6,4)              106.2264         calculate D2E/DX2 analytically  !
 ! A12   A(1,6,7)              136.4501         calculate D2E/DX2 analytically  !
 ! A13   A(4,6,7)              114.1132         calculate D2E/DX2 analytically  !
 ! A14   A(6,7,8)              109.059          calculate D2E/DX2 analytically  !
 ! A15   A(6,7,9)              109.0704         calculate D2E/DX2 analytically  !
 ! A16   A(6,7,10)             111.4658         calculate D2E/DX2 analytically  !
 ! A17   A(8,7,9)              109.103          calculate D2E/DX2 analytically  !
 ! A18   A(8,7,10)             109.0562         calculate D2E/DX2 analytically  !
 ! A19   A(9,7,10)             109.0532         calculate D2E/DX2 analytically  !
 ! A20   A(7,10,11)            119.9894         calculate D2E/DX2 analytically  !
 ! A21   A(7,10,35)            119.9871         calculate D2E/DX2 analytically  !
 ! A22   A(11,10,35)           120.0235         calculate D2E/DX2 analytically  !
 ! A23   A(1,12,13)            102.7182         calculate D2E/DX2 analytically  !
 ! A24   A(1,12,14)            109.0614         calculate D2E/DX2 analytically  !
 ! A25   A(1,12,16)            118.047          calculate D2E/DX2 analytically  !
 ! A26   A(13,12,14)           115.4624         calculate D2E/DX2 analytically  !
 ! A27   A(13,12,16)           105.9346         calculate D2E/DX2 analytically  !
 ! A28   A(14,12,16)           106.0077         calculate D2E/DX2 analytically  !
 ! A29   A(12,14,15)           109.4484         calculate D2E/DX2 analytically  !
 ! A30   A(12,14,39)           109.4825         calculate D2E/DX2 analytically  !
 ! A31   A(15,14,39)           109.4627         calculate D2E/DX2 analytically  !
 ! A32   A(12,16,17)           108.5346         calculate D2E/DX2 analytically  !
 ! A33   A(12,16,18)           108.5745         calculate D2E/DX2 analytically  !
 ! A34   A(12,16,19)           100.9542         calculate D2E/DX2 analytically  !
 ! A35   A(17,16,18)           120.0326         calculate D2E/DX2 analytically  !
 ! A36   A(17,16,19)           108.5434         calculate D2E/DX2 analytically  !
 ! A37   A(18,16,19)           108.5245         calculate D2E/DX2 analytically  !
 ! A38   A(16,19,20)           109.4494         calculate D2E/DX2 analytically  !
 ! A39   A(3,21,22)            115.5726         calculate D2E/DX2 analytically  !
 ! A40   A(3,21,23)            128.8914         calculate D2E/DX2 analytically  !
 ! A41   A(22,21,23)           115.536          calculate D2E/DX2 analytically  !
 ! A42   A(21,23,24)           126.7908         calculate D2E/DX2 analytically  !
 ! A43   A(21,23,26)           118.3482         calculate D2E/DX2 analytically  !
 ! A44   A(24,23,26)           114.861          calculate D2E/DX2 analytically  !
 ! A45   A(23,24,25)           118.881          calculate D2E/DX2 analytically  !
 ! A46   A(23,24,28)           122.2397         calculate D2E/DX2 analytically  !
 ! A47   A(25,24,28)           118.8793         calculate D2E/DX2 analytically  !
 ! A48   A(23,26,27)           117.8708         calculate D2E/DX2 analytically  !
 ! A49   A(23,26,30)           124.2195         calculate D2E/DX2 analytically  !
 ! A50   A(27,26,30)           117.9097         calculate D2E/DX2 analytically  !
 ! A51   A(24,28,29)           121.3142         calculate D2E/DX2 analytically  !
 ! A52   A(24,28,32)           117.3684         calculate D2E/DX2 analytically  !
 ! A53   A(29,28,32)           121.3174         calculate D2E/DX2 analytically  !
 ! A54   A(26,30,31)           119.8278         calculate D2E/DX2 analytically  !
 ! A55   A(26,30,32)           120.3554         calculate D2E/DX2 analytically  !
 ! A56   A(31,30,32)           119.8167         calculate D2E/DX2 analytically  !
 ! A57   A(28,32,30)           120.9555         calculate D2E/DX2 analytically  !
 ! A58   A(28,32,33)           116.8922         calculate D2E/DX2 analytically  !
 ! A59   A(30,32,33)           122.1518         calculate D2E/DX2 analytically  !
 ! A60   A(32,33,34)           109.4489         calculate D2E/DX2 analytically  !
 ! A61   A(10,35,36)           109.4263         calculate D2E/DX2 analytically  !
 ! A62   A(10,35,37)           109.4989         calculate D2E/DX2 analytically  !
 ! A63   A(10,35,38)           109.4231         calculate D2E/DX2 analytically  !
 ! A64   A(36,35,37)           109.4918         calculate D2E/DX2 analytically  !
 ! A65   A(36,35,38)           109.4459         calculate D2E/DX2 analytically  !
 ! A66   A(37,35,38)           109.5412         calculate D2E/DX2 analytically  !
 ! A67   A(14,39,40)           109.4831         calculate D2E/DX2 analytically  !
 ! A68   A(14,39,41)           109.5073         calculate D2E/DX2 analytically  !
 ! A69   A(14,39,42)           109.4908         calculate D2E/DX2 analytically  !
 ! A70   A(40,39,41)           109.4726         calculate D2E/DX2 analytically  !
 ! A71   A(40,39,42)           109.4125         calculate D2E/DX2 analytically  !
 ! A72   A(41,39,42)           109.461          calculate D2E/DX2 analytically  !
 ! D1    D(6,1,2,3)             -0.0847         calculate D2E/DX2 analytically  !
 ! D2    D(12,1,2,3)           170.3361         calculate D2E/DX2 analytically  !
 ! D3    D(2,1,6,4)             -0.0413         calculate D2E/DX2 analytically  !
 ! D4    D(2,1,6,7)            157.4321         calculate D2E/DX2 analytically  !
 ! D5    D(12,1,6,4)          -170.7294         calculate D2E/DX2 analytically  !
 ! D6    D(12,1,6,7)           -13.256          calculate D2E/DX2 analytically  !
 ! D7    D(2,1,12,13)          138.5619         calculate D2E/DX2 analytically  !
 ! D8    D(2,1,12,14)          -98.4624         calculate D2E/DX2 analytically  !
 ! D9    D(2,1,12,16)           22.5131         calculate D2E/DX2 analytically  !
 ! D10   D(6,1,12,13)          -51.9511         calculate D2E/DX2 analytically  !
 ! D11   D(6,1,12,14)           71.0246         calculate D2E/DX2 analytically  !
 ! D12   D(6,1,12,16)         -167.9999         calculate D2E/DX2 analytically  !
 ! D13   D(1,2,3,4)              0.1697         calculate D2E/DX2 analytically  !
 ! D14   D(1,2,3,21)          -179.9147         calculate D2E/DX2 analytically  !
 ! D15   D(2,3,4,5)           -179.8602         calculate D2E/DX2 analytically  !
 ! D16   D(2,3,4,6)             -0.1921         calculate D2E/DX2 analytically  !
 ! D17   D(21,3,4,5)             0.2202         calculate D2E/DX2 analytically  !
 ! D18   D(21,3,4,6)           179.8883         calculate D2E/DX2 analytically  !
 ! D19   D(2,3,21,22)         -179.8554         calculate D2E/DX2 analytically  !
 ! D20   D(2,3,21,23)            0.1553         calculate D2E/DX2 analytically  !
 ! D21   D(4,3,21,22)            0.0435         calculate D2E/DX2 analytically  !
 ! D22   D(4,3,21,23)         -179.9458         calculate D2E/DX2 analytically  !
 ! D23   D(3,4,6,1)              0.1479         calculate D2E/DX2 analytically  !
 ! D24   D(3,4,6,7)           -163.0424         calculate D2E/DX2 analytically  !
 ! D25   D(5,4,6,1)            179.7955         calculate D2E/DX2 analytically  !
 ! D26   D(5,4,6,7)             16.6052         calculate D2E/DX2 analytically  !
 ! D27   D(1,6,7,8)            -28.0477         calculate D2E/DX2 analytically  !
 ! D28   D(1,6,7,9)           -147.1117         calculate D2E/DX2 analytically  !
 ! D29   D(1,6,7,10)            92.4184         calculate D2E/DX2 analytically  !
 ! D30   D(4,6,7,8)            128.1853         calculate D2E/DX2 analytically  !
 ! D31   D(4,6,7,9)              9.1213         calculate D2E/DX2 analytically  !
 ! D32   D(4,6,7,10)          -111.3486         calculate D2E/DX2 analytically  !
 ! D33   D(6,7,10,11)          160.6449         calculate D2E/DX2 analytically  !
 ! D34   D(6,7,10,35)          -19.338          calculate D2E/DX2 analytically  !
 ! D35   D(8,7,10,11)          -78.8874         calculate D2E/DX2 analytically  !
 ! D36   D(8,7,10,35)          101.1296         calculate D2E/DX2 analytically  !
 ! D37   D(9,7,10,11)           40.1649         calculate D2E/DX2 analytically  !
 ! D38   D(9,7,10,35)         -139.818          calculate D2E/DX2 analytically  !
 ! D39   D(7,10,35,36)         -68.927          calculate D2E/DX2 analytically  !
 ! D40   D(7,10,35,37)          51.0877         calculate D2E/DX2 analytically  !
 ! D41   D(7,10,35,38)         171.1608         calculate D2E/DX2 analytically  !
 ! D42   D(11,10,35,36)        111.0901         calculate D2E/DX2 analytically  !
 ! D43   D(11,10,35,37)       -128.8953         calculate D2E/DX2 analytically  !
 ! D44   D(11,10,35,38)         -8.8221         calculate D2E/DX2 analytically  !
 ! D45   D(1,12,14,15)          36.3374         calculate D2E/DX2 analytically  !
 ! D46   D(1,12,14,39)         156.3199         calculate D2E/DX2 analytically  !
 ! D47   D(13,12,14,15)        151.3309         calculate D2E/DX2 analytically  !
 ! D48   D(13,12,14,39)        -88.6866         calculate D2E/DX2 analytically  !
 ! D49   D(16,12,14,15)        -91.7359         calculate D2E/DX2 analytically  !
 ! D50   D(16,12,14,39)         28.2466         calculate D2E/DX2 analytically  !
 ! D51   D(1,12,16,17)        -177.5979         calculate D2E/DX2 analytically  !
 ! D52   D(1,12,16,18)         -45.5661         calculate D2E/DX2 analytically  !
 ! D53   D(1,12,16,19)          68.4146         calculate D2E/DX2 analytically  !
 ! D54   D(13,12,16,17)         68.1012         calculate D2E/DX2 analytically  !
 ! D55   D(13,12,16,18)       -159.867          calculate D2E/DX2 analytically  !
 ! D56   D(13,12,16,19)        -45.8862         calculate D2E/DX2 analytically  !
 ! D57   D(14,12,16,17)        -55.0633         calculate D2E/DX2 analytically  !
 ! D58   D(14,12,16,18)         76.9685         calculate D2E/DX2 analytically  !
 ! D59   D(14,12,16,19)       -169.0507         calculate D2E/DX2 analytically  !
 ! D60   D(12,14,39,40)         48.3237         calculate D2E/DX2 analytically  !
 ! D61   D(12,14,39,41)        168.3548         calculate D2E/DX2 analytically  !
 ! D62   D(12,14,39,42)        -71.6237         calculate D2E/DX2 analytically  !
 ! D63   D(15,14,39,40)        168.2974         calculate D2E/DX2 analytically  !
 ! D64   D(15,14,39,41)        -71.6715         calculate D2E/DX2 analytically  !
 ! D65   D(15,14,39,42)         48.3501         calculate D2E/DX2 analytically  !
 ! D66   D(12,16,19,20)        107.0763         calculate D2E/DX2 analytically  !
 ! D67   D(17,16,19,20)         -6.9045         calculate D2E/DX2 analytically  !
 ! D68   D(18,16,19,20)       -138.9052         calculate D2E/DX2 analytically  !
 ! D69   D(3,21,23,24)          -0.0576         calculate D2E/DX2 analytically  !
 ! D70   D(3,21,23,26)         179.8834         calculate D2E/DX2 analytically  !
 ! D71   D(22,21,23,24)        179.9531         calculate D2E/DX2 analytically  !
 ! D72   D(22,21,23,26)         -0.1059         calculate D2E/DX2 analytically  !
 ! D73   D(21,23,24,25)          0.03           calculate D2E/DX2 analytically  !
 ! D74   D(21,23,24,28)       -179.9936         calculate D2E/DX2 analytically  !
 ! D75   D(26,23,24,25)       -179.9128         calculate D2E/DX2 analytically  !
 ! D76   D(26,23,24,28)          0.0636         calculate D2E/DX2 analytically  !
 ! D77   D(21,23,26,27)          0.0357         calculate D2E/DX2 analytically  !
 ! D78   D(21,23,26,30)       -179.9928         calculate D2E/DX2 analytically  !
 ! D79   D(24,23,26,27)        179.9836         calculate D2E/DX2 analytically  !
 ! D80   D(24,23,26,30)         -0.0449         calculate D2E/DX2 analytically  !
 ! D81   D(23,24,28,29)       -179.9246         calculate D2E/DX2 analytically  !
 ! D82   D(23,24,28,32)          0.0733         calculate D2E/DX2 analytically  !
 ! D83   D(25,24,28,29)          0.0518         calculate D2E/DX2 analytically  !
 ! D84   D(25,24,28,32)       -179.9503         calculate D2E/DX2 analytically  !
 ! D85   D(23,26,30,31)        179.8473         calculate D2E/DX2 analytically  !
 ! D86   D(23,26,30,32)         -0.1223         calculate D2E/DX2 analytically  !
 ! D87   D(27,26,30,31)         -0.1813         calculate D2E/DX2 analytically  !
 ! D88   D(27,26,30,32)        179.8491         calculate D2E/DX2 analytically  !
 ! D89   D(24,28,32,30)         -0.2438         calculate D2E/DX2 analytically  !
 ! D90   D(24,28,32,33)       -179.9963         calculate D2E/DX2 analytically  !
 ! D91   D(29,28,32,30)        179.7541         calculate D2E/DX2 analytically  !
 ! D92   D(29,28,32,33)          0.0017         calculate D2E/DX2 analytically  !
 ! D93   D(26,30,32,28)          0.27           calculate D2E/DX2 analytically  !
 ! D94   D(26,30,32,33)       -179.9907         calculate D2E/DX2 analytically  !
 ! D95   D(31,30,32,28)       -179.6995         calculate D2E/DX2 analytically  !
 ! D96   D(31,30,32,33)          0.0397         calculate D2E/DX2 analytically  !
 ! D97   D(28,32,33,34)        179.3872         calculate D2E/DX2 analytically  !
 ! D98   D(30,32,33,34)         -0.3621         calculate D2E/DX2 analytically  !
 --------------------------------------------------------------------------------
 Trust Radius=3.00D-01 FncErr=1.00D-07 GrdErr=1.00D-07
 Number of steps in this run=    223 maximum allowed number of steps=    252.
 GradGradGradGradGradGradGradGradGradGradGradGradGradGradGradGradGradGrad

 Leave Link  103 at Sat Oct 18 15:06:29 2014, MaxMem=   536870912 cpu:         0.1
 (Enter //g09/l202.exe)
                          Input orientation:                          
 ---------------------------------------------------------------------
 Center     Atomic      Atomic             Coordinates (Angstroms)
 Number     Number       Type             X           Y           Z
 ---------------------------------------------------------------------
      1          6           0       17.279000    1.091000  105.756000
      2          7           0       16.292000    0.652000  105.057000
      3          6           0       15.072000    0.969000  105.713000
      4          6           0       15.478000    1.663000  106.900000
      5          8           0       14.671000    2.111000  107.758000
      6          7           0       16.860000    1.725000  106.906000
      7          6           0       17.393000    2.020000  108.109000
      8          1           0       18.139000    1.291000  108.349000
      9          1           0       16.622000    1.989000  108.850000
     10          6           0       17.997000    3.331000  108.112000
     11          8           0       18.243000    4.002000  109.351000
     12          6           0       18.672000    0.781000  105.505000
     13          1           0       19.155000    1.723000  105.662000
     14          7           0       19.105000   -0.335000  106.432000
     15          1           0       18.350000   -0.979000  106.553000
     16          6           0       19.054000    0.351000  104.143000
     17          1           0       20.099000    0.123000  104.139000
     18          1           0       18.346000   -0.376000  103.804000
     19          8           0       18.847000    1.577000  103.399000
     20          1           0       19.697000    1.958000  103.168000
     21          6           0       13.775000    0.696000  105.335000
     22          1           0       13.016000    1.044000  106.004000
     23          6           0       13.311000    0.021000  104.188000
     24          6           0       14.115000   -0.543000  103.135000
     25          1           0       15.180000   -0.460000  103.197000
     26          6           0       11.922000   -0.138000  104.022000
     27          1           0       11.279000    0.263000  104.777000
     28          6           0       13.541000   -1.208000  102.014000
     29          1           0       14.153000   -1.623000  101.240000
     30          6           0       11.338000   -0.776000  102.950000
     31          1           0       10.273000   -0.859000  102.896000
     32          6           0       12.106000   -1.300000  101.963000
     33          8           0       11.564000   -1.942000  100.880000
     34          1           0       10.607000   -1.950000  100.959000
     35          6           0       18.376000    4.007000  106.781000
     36          1           0       19.194000    3.481000  106.335000
     37          1           0       17.536000    3.988000  106.119000
     38          1           0       18.663000    5.021000  106.966000
     39          6           0       20.258000   -1.036000  105.850000
     40          1           0       20.988000   -0.320000  105.532000
     41          1           0       20.690000   -1.684000  106.584000
     42          1           0       19.937000   -1.614000  105.009000
 ---------------------------------------------------------------------
                    Distance matrix (angstroms):
                    1          2          3          4          5
     1  C    0.000000
     2  N    1.286659   0.000000
     3  C    2.210788   1.420994   0.000000
     4  C    2.208964   2.254189   1.433681   0.000000
     5  O    3.442393   3.471559   2.376340   1.260205   0.000000
     6  N    1.378411   2.211957   2.278537   1.383403   2.380467
     7  C    2.532320   3.521126   3.497493   2.292674   2.746046
     8  H    2.739206   3.828445   4.056929   3.052688   3.612299
     9  H    3.287992   4.035259   3.644677   2.284187   2.239140
    10  C    3.329243   4.406483   4.459806   3.255231   3.560336
    11  O    4.725171   5.785096   5.699945   4.373048   4.344274
    12  C    1.448982   2.425231   3.610901   3.595217   4.780472
    13  H    1.981826   3.116061   4.152349   3.880280   4.964878
    14  N    2.413447   3.282950   4.299124   4.167272   5.234649
    15  H    2.463159   3.022175   3.904560   3.917774   4.953298
    16  C    2.509979   2.924832   4.324714   4.702145   5.947816
    17  H    3.391771   3.951685   5.335159   5.598961   6.820007
    18  H    2.664748   2.616431   4.021490   4.687020   5.943476
    19  O    2.872328   3.183177   4.469327   4.859481   6.060117
    20  H    3.646390   4.107065   5.370826   5.640462   6.808244
    21  C    3.551237   2.532688   1.378268   2.506895   2.945500
    22  H    4.270466   3.432586   2.077846   2.692103   2.637049
    23  C    4.398698   3.168546   2.515045   3.840182   4.354607
    24  C    4.421594   3.140293   3.138165   4.571589   5.359569
    25  H    3.655117   2.435711   2.895507   4.278801   5.260403
    26  C    5.763215   4.559849   3.742650   4.916464   5.154871
    27  H    6.135473   5.035860   3.970061   4.909046   4.879255
    28  C    5.767201   4.504159   4.556961   5.988957   6.729502
    29  H    6.126331   4.931575   5.250786   6.677501   7.529635
    30  C    6.830432   5.569627   4.962051   6.220195   6.523843
    31  H    7.814482   6.571256   5.857258   7.034524   7.197385
    32  C    6.845704   5.559293   5.292260   6.672610   7.196956
    33  O    8.101586   6.821301   6.643634   8.034664   8.566630
    34  H    8.762104   7.475509   7.145439   8.489752   8.901360
    35  C    3.279800   4.309438   4.613728   3.729196   4.275087
    36  H    3.116820   4.249486   4.867023   4.175285   4.935520
    37  H    2.930943   3.715411   3.917971   3.201710   3.797061
    38  H    4.338716   5.324855   5.557337   4.628687   5.003142
    39  C    3.661612   4.382619   5.561779   5.588873   6.690190
    40  H    3.974642   4.819007   6.057503   6.013636   7.125260
    41  H    4.474498   5.208745   6.273673   6.202194   7.211703
    42  H    3.865229   4.292212   5.552993   5.847845   7.011660
                    6          7          8          9         10
     6  N    0.000000
     7  C    1.348452   0.000000
     8  H    1.976473   1.070307   0.000000
     9  H    1.976228   1.069805   1.743414   0.000000
    10  C    2.307908   1.443449   2.058624   2.058211   0.000000
    11  O    3.615998   2.488652   2.892117   2.632643   1.430342
    12  C    2.477354   3.154644   2.938116   4.104971   3.708716
    13  H    2.610472   3.029961   2.904970   4.080464   3.151052
    14  N    3.083553   3.359955   2.692939   4.172887   4.182059
    15  H    3.107463   3.511550   2.902247   4.131733   4.596867
    16  C    3.786249   4.612335   4.405821   5.545585   5.074506
    17  H    4.551243   5.165457   4.788520   6.145324   5.522173
    18  H    4.030484   5.018172   4.845489   5.833311   5.694077
    19  O    4.033500   4.949188   5.008549   5.902014   5.100136
    20  H    4.698457   5.452132   5.451148   6.460782   5.405392
    21  C    3.611663   4.747418   5.336920   4.704517   5.699144
    22  H    4.006707   4.953961   5.639607   4.689987   5.872341
    23  C    4.783988   6.002747   6.498954   6.047313   6.950717
    24  C    5.186453   6.484977   6.836807   6.734783   7.405966
    25  H    4.620964   5.930895   6.193931   6.327193   6.816480
    26  C    6.014322   7.161869   7.708181   7.065671   8.103560
    27  H    6.149605   7.181244   7.802280   6.936574   8.103479
    28  C    6.599236   7.899805   8.216984   8.151335   8.811587
    29  H    7.116215   8.423313   8.655488   8.778075   9.302840
    30  C    7.238606   8.431840   8.926102   8.389033   9.373152
    31  H    8.133002   9.282155   9.809774   9.158112  10.218754
    32  C    7.495625   8.760598   9.159223   8.868063   9.693309
    33  O    8.820838  10.096194  10.462737  10.225313  11.022243
    34  H    9.379363  10.627003  11.038442  10.675384  11.561422
    35  C    2.742518   2.584191   3.145067   3.380769   1.540188
    36  H    2.976094   2.919794   3.156790   3.894416   2.147798
    37  H    2.489481   2.802423   3.551101   3.505675   2.148539
    38  H    3.757396   3.453310   4.012501   4.111953   2.147783
    39  C    4.503850   4.759248   4.018718   5.600993   5.412897
    40  H    4.807316   5.004054   4.318288   5.950005   5.378874
    41  H    5.137496   5.188010   4.298075   5.930793   5.893832
    42  H    4.920921   5.411829   4.777806   6.222870   6.151848
                   11         12         13         14         15
    11  O    0.000000
    12  C    5.034938   0.000000
    13  H    4.431061   1.070188   0.000000
    14  N    5.298412   1.514026   2.197900   0.000000
    15  H    5.714072   2.073545   2.956807   0.999701   0.000000
    16  C    6.411769   1.478468   2.049377   2.390129   2.841235
    17  H    6.756946   2.082126   2.402221   2.540797   3.178176
    18  H    7.067298   2.082865   2.917610   2.735717   2.814361
    19  O    6.455366   2.258202   2.288526   3.594634   4.089971
    20  H    6.672446   2.810253   2.563011   4.032618   4.679594
    21  C    6.857180   4.900687   5.486899   5.538526   5.021929
    22  H    6.875587   5.684057   6.185897   6.257855   5.731098
    23  C    8.174934   5.572469   6.262732   6.223561   5.655506
    24  C    8.737051   5.304350   6.076355   5.984444   5.459674
    25  H    8.195311   4.365892   5.161622   5.087875   4.645535
    26  C    9.246236   6.971825   7.646516   7.579076   6.959341
    27  H    9.132299   7.446795   8.058921   8.021403   7.395660
    28  C   10.153052   6.516929   7.308602   7.158139   6.616755
    29  H   10.684430   6.662642   7.467918   7.289589   6.801288
    30  C   10.558462   7.920848   8.643231   8.523209   7.886125
    31  H   11.349769   8.946490   9.654398   9.527964   8.867129
    32  C   10.970712   7.745236   8.515253   8.359975   7.756202
    33  O   12.316575   8.906684   9.691389   9.501254   8.897196
    34  H   12.812512   9.652394  10.424847  10.236110   9.601548
    35  C    2.573444   3.481791   2.660011   4.416583   4.991278
    36  H    3.205011   2.872522   1.882821   3.818270   4.544388
    37  H    3.308454   3.457216   2.821389   4.609562   5.051934
    38  H    2.627353   4.484663   3.580403   5.400672   6.022337
    39  C    6.457451   2.436372   2.977253   1.469535   2.034188
    40  H    6.387446   2.564525   2.747842   2.087083   2.904439
    41  H    6.780464   3.363449   3.848890   2.086895   2.444092
    42  H    7.298086   2.753591   3.489055   2.086383   2.303417
                   16         17         18         19         20
    16  C    0.000000
    17  H    1.069591   0.000000
    18  H    1.069913   1.853169   0.000000
    19  O    1.448952   2.056507   2.056510   0.000000
    20  H    1.986586   2.114632   2.770786   0.959699   0.000000
    21  C    5.422889   6.461557   4.938338   5.499949   6.431067
    22  H    6.356179   7.382097   5.938459   6.408641   7.315330
    23  C    5.752649   6.788943   5.065204   5.804391   6.750805
    24  C    5.119475   6.104083   4.286818   5.191909   6.116765
    25  H    4.069461   5.042203   3.224758   4.199650   5.123559
    26  C    7.149768   8.182001   6.432103   7.161353   8.097725
    27  H    7.801303   8.844153   7.162230   7.803852   8.736397
    28  C    6.111979   7.021008   5.194646   6.150454   7.017949
    29  H    6.028589   6.841610   5.070538   6.077410   6.875804
    30  C    7.888602   8.886903   7.071165   7.881833   8.797452
    31  H    8.951261   9.952871   8.138248   8.927518   9.839779
    32  C    7.466787   8.405234   6.571199   7.468621   8.348046
    33  O    8.485583   9.366511   7.549679   8.471766   9.305409
    34  H    9.315807  10.222905   8.394261   9.289291  10.138059
    35  C    4.559064   5.003434   5.298501   4.191022   4.358579
    36  H    3.823789   4.113102   4.690577   3.516493   3.549990
    37  H    4.408704   5.042578   5.005979   3.863941   4.183207
    38  H    5.470933   5.834760   6.263094   4.961701   4.987577
    39  C    2.507436   2.072699   2.877058   3.850466   4.058557
    40  H    2.473847   1.710853   3.157417   3.568218   3.527671
    41  H    3.574381   3.097185   3.864402   4.916807   5.091097
    42  H    2.321825   1.949439   2.348606   3.736667   4.025676
                   21         22         23         24         25
    21  C    0.000000
    22  H    1.069928   0.000000
    23  C    1.409443   2.105091   0.000000
    24  C    2.547689   3.457966   1.439903   0.000000
    25  H    2.807384   3.850216   2.169471   1.070027   0.000000
    26  C    2.419325   2.553876   1.407891   2.400009   3.376222
    27  H    2.594006   2.265537   2.129439   3.374714   4.270472
    28  C    3.835233   4.611641   2.507911   1.424199   2.155299
    29  H    4.721194   5.576859   3.478851   2.181483   2.497428
    30  C    3.714025   3.931285   2.461825   2.792892   3.862878
    31  H    4.542109   4.561263   3.416593   3.862375   4.932388
    32  C    4.259103   4.759424   2.854416   2.445959   3.417284
    33  O    5.629795   6.105725   4.224718   3.681009   4.543156
    34  H    6.015556   6.341872   4.650043   4.361271   5.304816
    35  C    5.850029   6.173548   6.947379   7.221630   6.558472
    36  H    6.174284   6.649527   7.154781   7.226951   6.441329
    37  H    5.059352   5.395439   6.108721   6.413849   5.820097
    38  H    6.727431   6.973563   7.833338   8.143645   7.508529
    39  C    6.730107   7.536357   7.220824   6.734295   5.758148
    40  H    7.286867   8.101609   7.801214   7.282408   6.261365
    41  H    7.419004   8.165088   7.943392   7.511864   6.582556
    42  H    6.588825   7.480323   6.873947   6.209235   5.219589
                   26         27         28         29         30
    26  C    0.000000
    27  H    1.069708   0.000000
    28  C    2.792512   3.861950   0.000000
    29  H    3.862915   4.932265   1.070441   0.000000
    30  C    1.377419   2.102601   2.432268   3.400843   0.000000
    31  H    2.122950   2.410204   3.402874   4.287241   1.069593
    32  C    2.371409   3.323476   1.438850   2.194827   1.355938
    33  O    3.640707   4.486631   2.394419   2.633302   2.386531
    34  H    3.794013   4.463863   3.204988   3.572115   2.424194
    35  C    8.151517   8.270487   8.561410   8.957305   9.332047
    36  H    8.445657   8.685051   8.521395   8.798950   9.554947
    37  H    7.275870   7.404501   7.733658   8.169006   8.435251
    38  H    8.984626   9.052831   9.463489   9.862551  10.168043
    39  C    8.581194   9.135709   7.737090   7.672529   9.383176
    40  H    9.192692   9.755747   8.283881   8.175347   9.999858
    41  H    9.264544   9.778700   8.498216   8.443603  10.074241
    42  H    8.209322   8.862162   7.074156   6.903629   8.881696
                   31         32         33         34         35
    31  H    0.000000
    32  C    2.103535   0.000000
    33  O    2.627513   1.370699   0.000000
    34  H    2.248067   1.917685   0.960288   0.000000
    35  C   10.219089   9.523144  10.798877  11.390298   0.000000
    36  H   10.499836   9.602713  10.834337  11.494943   1.069914
    37  H    9.307648   8.644084   9.913466  10.483152   1.069675
    38  H   11.024128  10.391309  11.658412  12.230210   1.069949
    39  C   10.414301   9.035130  10.055216  10.858134   5.462649
    40  H   11.047635   9.622270  10.634085  11.460122   5.206292
    41  H   11.081329   9.756339  10.765039  11.548951   6.146616
    42  H    9.921073   8.408405   9.341486  10.176654   6.096913
                   36         37         38         39         40
    36  H    0.000000
    37  H    1.747189   0.000000
    38  H    1.746918   1.747749   0.000000
    39  C    4.665899   5.720334   6.362133   0.000000
    40  H    4.279117   5.551553   5.999022   1.070831   0.000000
    41  H    5.383051   6.506576   7.015104   1.070179   1.748143
    42  H    5.316893   6.195103   7.033928   1.069769   1.747159
                   41         42
    41  H    0.000000
    42  H    1.747150   0.000000
 Stoichiometry    C16H19N3O4
 Framework group  C1[X(C16H19N3O4)]
 Deg. of freedom   120
 Full point group                 C1      NOp   1
 Largest Abelian subgroup         C1      NOp   1
 Largest concise Abelian subgroup C1      NOp   1
                         Standard orientation:                         
 ---------------------------------------------------------------------
 Center     Atomic      Atomic             Coordinates (Angstroms)
 Number     Number       Type             X           Y           Z
 ---------------------------------------------------------------------
      1          6           0        1.340979    0.378406   -0.007437
      2          7           0        0.055193    0.337241    0.016069
      3          6           0       -0.377226   -1.001639   -0.183027
      4          6           0        0.838031   -1.749127   -0.323931
      5          8           0        0.874199   -2.993383   -0.520492
      6          7           0        1.897075   -0.866009   -0.212880
      7          6           0        3.067934   -1.348936   -0.675689
      8          1           0        3.487052   -0.646830   -1.366300
      9          1           0        2.888701   -2.273979   -1.182300
     10          6           0        4.007611   -1.573400    0.396771
     11          8           0        5.123428   -2.446098    0.198707
     12          6           0        2.128496    1.594311   -0.038091
     13          1           0        2.925652    1.375920    0.641725
     14          7           0        2.548709    1.875401   -1.465215
     15          1           0        1.812147    1.611023   -2.087294
     16          6           0        1.503633    2.839900    0.455794
     17          1           0        2.197682    3.643255    0.325629
     18          1           0        0.517843    2.912265    0.046288
     19          8           0        1.394001    2.550455    1.871302
     20          1           0        2.043293    3.066445    2.354206
     21          6           0       -1.656115   -1.512904   -0.234724
     22          1           0       -1.725371   -2.568466   -0.395157
     23          6           0       -2.885613   -0.836035   -0.105449
     24          6           0       -3.074563    0.574186    0.115677
     25          1           0       -2.213741    1.204800    0.194855
     26          6           0       -4.074083   -1.585120   -0.198010
     27          1           0       -3.989581   -2.638738   -0.362399
     28          6           0       -4.368218    1.158346    0.232107
     29          1           0       -4.491554    2.209063    0.395289
     30          6           0       -5.338180   -1.048771   -0.089974
     31          1           0       -6.194592   -1.684014   -0.173962
     32          6           0       -5.502806    0.280391    0.121680
     33          8           0       -6.743065    0.852845    0.235120
     34          1           0       -7.417626    0.176594    0.136092
     35          6           0        3.808167   -0.873393    1.754117
     36          1           0        3.978345    0.176855    1.641273
     37          1           0        2.808537   -1.038143    2.097341
     38          1           0        4.501020   -1.272122    2.465285
     39          6           0        2.829298    3.309563   -1.620083
     40          1           0        3.465326    3.637129   -0.823309
     41          1           0        3.316121    3.479224   -2.557901
     42          1           0        1.911325    3.858076   -1.590661
 ---------------------------------------------------------------------
 Rotational constants (GHZ):      0.4195468      0.1307613      0.1087970
 Leave Link  202 at Sat Oct 18 15:06:29 2014, MaxMem=   536870912 cpu:         0.0
 (Enter //g09/l301.exe)
 Standard basis: 6-31G(d) (6D, 7F)
 Ernie: Thresh=  0.10000D-02 Tol=  0.10000D-05 Strict=F.
 There are   383 symmetry adapted cartesian basis functions of A   symmetry.
 There are   383 symmetry adapted basis functions of A   symmetry.
   383 basis functions,   720 primitive gaussians,   383 cartesian basis functions
    84 alpha electrons       84 beta electrons
       nuclear repulsion energy      1906.6290453853 Hartrees.
 IExCor=    0 DFT=F Ex=HF Corr=None ExCW=0 ScaHFX=  1.000000
 ScaDFX=  1.000000  1.000000  1.000000  1.000000 ScalE2=  1.000000  1.000000
 IRadAn=      0 IRanWt=     -1 IRanGd=            0 ICorTp=0 IEmpDi=  4
 NAtoms=   42 NActive=   42 NUniq=   42 SFac= 1.00D+00 NAtFMM=   60 NAOKFM=F Big=F
 Integral buffers will be    131072 words long.
 Raffenetti 1 integral format.
 Two-electron integral symmetry is turned on.
 Leave Link  301 at Sat Oct 18 15:06:29 2014, MaxMem=   536870912 cpu:         0.2
 (Enter //g09/linda-exe/l302.exel)
 NPDir=0 NMtPBC=     1 NCelOv=     1 NCel=       1 NClECP=     1 NCelD=      1
         NCelK=      1 NCelE2=     1 NClLst=     1 CellRange=     0.0.
 One-electron integrals computed using PRISM.
 NBasis=   383 RedAO= T EigKep=  4.00D-04  NBF=   383
 NBsUse=   383 1.00D-06 EigRej= -1.00D+00 NBFU=   383
 Leave Link  302 at Sat Oct 18 15:06:31 2014, MaxMem=   536870912 cpu:         3.1
 (Enter //g09/l303.exe)
 DipDrv:  MaxL=1.
 Leave Link  303 at Sat Oct 18 15:06:31 2014, MaxMem=   536870912 cpu:         0.3
 (Enter //g09/linda-exe/l401.exel)
 ExpMin= 1.61D-01 ExpMax= 5.48D+03 ExpMxC= 8.25D+02 IAcc=1 IRadAn=         1 AccDes= 0.00D+00
 Harris functional with IExCor=  205 and IRadAn=       1 diagonalized for initial guess.
 HarFok:  IExCor=  205 AccDes= 0.00D+00 IRadAn=         1 IDoV= 1 UseB2=F ITyADJ=14
 ICtDFT=  3500011 ScaDFX=  1.000000  1.000000  1.000000  1.000000
 FoFCou: FMM=F IPFlag=           0 FMFlag=      100000 FMFlg1=           0
         NFxFlg=           0 DoJE=T BraDBF=F KetDBF=T FulRan=T
         wScrn=  0.000000 ICntrl=     500 IOpCl=  0 I1Cent=   200000004 NGrid=           0
         NMat0=    1 NMatS0=      1 NMatT0=    0 NMatD0=    1 NMtDS0=    0 NMtDT0=    0
 Petite list used in FoFCou.
 Harris En= -1080.83679297871    
 JPrj=0 DoOrth=F DoCkMO=F.
 Leave Link  401 at Sat Oct 18 15:06:35 2014, MaxMem=   536870912 cpu:         9.2
 (Enter //g09/linda-exe/l502.exel)
 Closed shell SCF:
 Using DIIS extrapolation, IDIIS=  1040.
 Integral symmetry usage will be decided dynamically.
 IVT=      463810 IEndB=      463810 NGot=   536870912 MDV=   536570815
 LenX=   536570815 LenY=   536423685
 Requested convergence on RMS density matrix=1.00D-08 within 128 cycles.
 Requested convergence on MAX density matrix=1.00D-06.
 Requested convergence on             energy=1.00D-06.
 No special actions if energy rises.
 Fock matrices will be formed incrementally for  20 cycles.
 Integral accuracy reduced to 1.0D-05 until final iterations.

 Cycle   1  Pass 0  IDiag  1:
 FoFJK:  IHMeth= 1 ICntrl=       0 DoSepK=F KAlg= 0 I1Cent=   0 FoldK=F
 IRaf= 680000000 NMat=   1 IRICut=       1 DoRegI=T DoRafI=F ISym2E= 0.
 FoFCou: FMM=F IPFlag=           0 FMFlag=      100000 FMFlg1=           0
         NFxFlg=           0 DoJE=F BraDBF=F KetDBF=F FulRan=T
         wScrn=  0.000000 ICntrl=       0 IOpCl=  0 I1Cent=           0 NGrid=           0
         NMat0=    1 NMatS0=      1 NMatT0=    0 NMatD0=    1 NMtDS0=    0 NMtDT0=    0
 Symmetry not used in FoFCou.
 E= -1078.71165039315    
 DIIS: error= 4.96D-02 at cycle   1 NSaved=   1.
 NSaved= 1 IEnMin= 1 EnMin= -1078.71165039315     IErMin= 1 ErrMin= 4.96D-02
 ErrMax= 4.96D-02  0.00D+00 EMaxC= 1.00D-01 BMatC= 1.50D+00 BMatP= 1.50D+00
 IDIUse=3 WtCom= 5.04D-01 WtEn= 4.96D-01
 Coeff-Com:  0.100D+01
 Coeff-En:   0.100D+01
 Coeff:      0.100D+01
 Gap=     0.311 Goal=   None    Shift=    0.000
 GapD=    0.311 DampG=1.000 DampE=0.500 DampFc=0.5000 IDamp=-1.
 Damping current iteration by 5.00D-01
 RMSDP=3.94D-03 MaxDP=1.10D-01              OVMax= 1.55D-01

 Cycle   2  Pass 0  IDiag  1:
 RMSU=  1.93D-03    CP:  9.77D-01
 E= -1079.15004744451     Delta-E=       -0.438397051367 Rises=F Damp=T
 DIIS: error= 2.89D-02 at cycle   2 NSaved=   2.
 NSaved= 2 IEnMin= 2 EnMin= -1079.15004744451     IErMin= 2 ErrMin= 2.89D-02
 ErrMax= 2.89D-02  0.00D+00 EMaxC= 1.00D-01 BMatC= 3.35D-01 BMatP= 1.50D+00
 IDIUse=3 WtCom= 7.11D-01 WtEn= 2.89D-01
 Coeff-Com: -0.632D+00 0.163D+01
 Coeff-En:   0.000D+00 0.100D+01
 Coeff:     -0.449D+00 0.145D+01
 Gap=     0.322 Goal=   None    Shift=    0.000
 RMSDP=1.85D-03 MaxDP=6.96D-02 DE=-4.38D-01 OVMax= 9.43D-02

 Cycle   3  Pass 0  IDiag  1:
 RMSU=  1.26D-03    CP:  9.53D-01  1.67D+00
 E= -1079.54647167374     Delta-E=       -0.396424229227 Rises=F Damp=F
 DIIS: error= 6.82D-03 at cycle   3 NSaved=   3.
 NSaved= 3 IEnMin= 3 EnMin= -1079.54647167374     IErMin= 3 ErrMin= 6.82D-03
 ErrMax= 6.82D-03  0.00D+00 EMaxC= 1.00D-01 BMatC= 2.26D-02 BMatP= 3.35D-01
 IDIUse=3 WtCom= 9.32D-01 WtEn= 6.82D-02
 Coeff-Com: -0.217D+00 0.416D+00 0.801D+00
 Coeff-En:   0.000D+00 0.000D+00 0.100D+01
 Coeff:     -0.202D+00 0.388D+00 0.815D+00
 Gap=     0.316 Goal=   None    Shift=    0.000
 RMSDP=4.87D-04 MaxDP=2.96D-02 DE=-3.96D-01 OVMax= 4.07D-02

 Cycle   4  Pass 0  IDiag  1:
 RMSU=  3.88D-04    CP:  9.54D-01  1.78D+00  8.46D-01
 E= -1079.56328116116     Delta-E=       -0.016809487416 Rises=F Damp=F
 DIIS: error= 2.92D-03 at cycle   4 NSaved=   4.
 NSaved= 4 IEnMin= 4 EnMin= -1079.56328116116     IErMin= 4 ErrMin= 2.92D-03
 ErrMax= 2.92D-03  0.00D+00 EMaxC= 1.00D-01 BMatC= 3.79D-03 BMatP= 2.26D-02
 IDIUse=3 WtCom= 9.71D-01 WtEn= 2.92D-02
 Coeff-Com: -0.293D-01 0.332D-01 0.314D+00 0.682D+00
 Coeff-En:   0.000D+00 0.000D+00 0.000D+00 0.100D+01
 Coeff:     -0.284D-01 0.323D-01 0.305D+00 0.692D+00
 Gap=     0.318 Goal=   None    Shift=    0.000
 RMSDP=1.78D-04 MaxDP=1.12D-02 DE=-1.68D-02 OVMax= 1.51D-02

 Cycle   5  Pass 0  IDiag  1:
 RMSU=  9.96D-05    CP:  9.52D-01  1.78D+00  9.43D-01  8.00D-01
 E= -1079.56666568982     Delta-E=       -0.003384528659 Rises=F Damp=F
 DIIS: error= 5.19D-04 at cycle   5 NSaved=   5.
 NSaved= 5 IEnMin= 5 EnMin= -1079.56666568982     IErMin= 5 ErrMin= 5.19D-04
 ErrMax= 5.19D-04  0.00D+00 EMaxC= 1.00D-01 BMatC= 1.30D-04 BMatP= 3.79D-03
 IDIUse=3 WtCom= 9.95D-01 WtEn= 5.19D-03
 Coeff-Com:  0.874D-02-0.186D-01-0.182D-01 0.730D-01 0.955D+00
 Coeff-En:   0.000D+00 0.000D+00 0.000D+00 0.000D+00 0.100D+01
 Coeff:      0.869D-02-0.185D-01-0.181D-01 0.726D-01 0.955D+00
 Gap=     0.321 Goal=   None    Shift=    0.000
 RMSDP=5.33D-05 MaxDP=2.39D-03 DE=-3.38D-03 OVMax= 4.85D-03

 Cycle   6  Pass 0  IDiag  1:
 RMSU=  3.72D-05    CP:  9.52D-01  1.78D+00  9.62D-01  8.66D-01  1.16D+00
 E= -1079.56690789206     Delta-E=       -0.000242202249 Rises=F Damp=F
 DIIS: error= 3.24D-04 at cycle   6 NSaved=   6.
 NSaved= 6 IEnMin= 6 EnMin= -1079.56690789206     IErMin= 6 ErrMin= 3.24D-04
 ErrMax= 3.24D-04  0.00D+00 EMaxC= 1.00D-01 BMatC= 3.21D-05 BMatP= 1.30D-04
 IDIUse=3 WtCom= 9.97D-01 WtEn= 3.24D-03
 Coeff-Com:  0.774D-02-0.116D-01-0.597D-01-0.103D+00 0.266D+00 0.900D+00
 Coeff-En:   0.000D+00 0.000D+00 0.000D+00 0.000D+00 0.000D+00 0.100D+01
 Coeff:      0.771D-02-0.116D-01-0.595D-01-0.103D+00 0.266D+00 0.901D+00
 Gap=     0.322 Goal=   None    Shift=    0.000
 RMSDP=2.90D-05 MaxDP=1.15D-03 DE=-2.42D-04 OVMax= 3.07D-03

 Cycle   7  Pass 0  IDiag  1:
 RMSU=  1.43D-05    CP:  9.52D-01  1.78D+00  9.70D-01  8.92D-01  1.36D+00
                    CP:  1.08D+00
 E= -1079.56697259485     Delta-E=       -0.000064702790 Rises=F Damp=F
 DIIS: error= 1.23D-04 at cycle   7 NSaved=   7.
 NSaved= 7 IEnMin= 7 EnMin= -1079.56697259485     IErMin= 7 ErrMin= 1.23D-04
 ErrMax= 1.23D-04  0.00D+00 EMaxC= 1.00D-01 BMatC= 4.01D-06 BMatP= 3.21D-05
 IDIUse=3 WtCom= 9.99D-01 WtEn= 1.23D-03
 Coeff-Com:  0.644D-03-0.393D-03-0.877D-02-0.323D-01-0.673D-01 0.189D+00
 Coeff-Com:  0.919D+00
 Coeff-En:   0.000D+00 0.000D+00 0.000D+00 0.000D+00 0.000D+00 0.000D+00
 Coeff-En:   0.100D+01
 Coeff:      0.643D-03-0.393D-03-0.876D-02-0.322D-01-0.672D-01 0.189D+00
 Coeff:      0.919D+00
 Gap=     0.323 Goal=   None    Shift=    0.000
 RMSDP=1.09D-05 MaxDP=4.47D-04 DE=-6.47D-05 OVMax= 1.25D-03

 Cycle   8  Pass 0  IDiag  1:
 RMSU=  5.32D-06    CP:  9.52D-01  1.78D+00  9.72D-01  8.95D-01  1.42D+00
                    CP:  1.25D+00  1.16D+00
 E= -1079.56698192404     Delta-E=       -0.000009329181 Rises=F Damp=F
 DIIS: error= 3.40D-05 at cycle   8 NSaved=   8.
 NSaved= 8 IEnMin= 8 EnMin= -1079.56698192404     IErMin= 8 ErrMin= 3.40D-05
 ErrMax= 3.40D-05  0.00D+00 EMaxC= 1.00D-01 BMatC= 5.73D-07 BMatP= 4.01D-06
 IDIUse=1 WtCom= 1.00D+00 WtEn= 0.00D+00
 Coeff-Com: -0.142D-02 0.217D-02 0.119D-01 0.159D-01-0.601D-01-0.142D+00
 Coeff-Com:  0.586D-01 0.112D+01
 Coeff:     -0.142D-02 0.217D-02 0.119D-01 0.159D-01-0.601D-01-0.142D+00
 Coeff:      0.586D-01 0.112D+01
 Gap=     0.323 Goal=   None    Shift=    0.000
 RMSDP=5.39D-06 MaxDP=2.69D-04 DE=-9.33D-06 OVMax= 6.43D-04

 Initial convergence to 1.0D-05 achieved.  Increase integral accuracy.
 Cycle   9  Pass 1  IDiag  1:
 E= -1079.56698616173     Delta-E=       -0.000004237700 Rises=F Damp=F
 DIIS: error= 7.66D-05 at cycle   1 NSaved=   1.
 NSaved= 1 IEnMin= 1 EnMin= -1079.56698616173     IErMin= 1 ErrMin= 7.66D-05
 ErrMax= 7.66D-05  0.00D+00 EMaxC= 1.00D-01 BMatC= 8.69D-07 BMatP= 8.69D-07
 IDIUse=1 WtCom= 1.00D+00 WtEn= 0.00D+00
 Coeff-Com:  0.100D+01
 Coeff:      0.100D+01
 Gap=     0.323 Goal=   None    Shift=    0.000
 RMSDP=5.39D-06 MaxDP=2.69D-04 DE=-4.24D-06 OVMax= 1.78D-04

 Cycle  10  Pass 1  IDiag  1:
 RMSU=  3.44D-05    CP:  1.00D+00
 E= -1079.56698697356     Delta-E=       -0.000000811820 Rises=F Damp=F
 DIIS: error= 9.60D-06 at cycle   2 NSaved=   2.
 NSaved= 2 IEnMin= 2 EnMin= -1079.56698697356     IErMin= 2 ErrMin= 9.60D-06
 ErrMax= 9.60D-06  0.00D+00 EMaxC= 1.00D-01 BMatC= 2.69D-08 BMatP= 8.69D-07
 IDIUse=1 WtCom= 1.00D+00 WtEn= 0.00D+00
 Coeff-Com: -0.188D-01 0.102D+01
 Coeff:     -0.188D-01 0.102D+01
 Gap=     0.323 Goal=   None    Shift=    0.000
 RMSDP=1.82D-06 MaxDP=7.66D-05 DE=-8.12D-07 OVMax= 1.19D-04

 Cycle  11  Pass 1  IDiag  1:
 RMSU=  8.42D-07    CP:  1.00D+00  1.05D+00
 E= -1079.56698704649     Delta-E=       -0.000000072931 Rises=F Damp=F
 DIIS: error= 5.29D-06 at cycle   3 NSaved=   3.
 NSaved= 3 IEnMin= 3 EnMin= -1079.56698704649     IErMin= 3 ErrMin= 5.29D-06
 ErrMax= 5.29D-06  0.00D+00 EMaxC= 1.00D-01 BMatC= 1.34D-08 BMatP= 2.69D-08
 IDIUse=1 WtCom= 1.00D+00 WtEn= 0.00D+00
 Coeff-Com: -0.274D-01 0.318D+00 0.710D+00
 Coeff:     -0.274D-01 0.318D+00 0.710D+00
 Gap=     0.323 Goal=   None    Shift=    0.000
 RMSDP=4.11D-07 MaxDP=1.63D-05 DE=-7.29D-08 OVMax= 5.84D-05

 Cycle  12  Pass 1  IDiag  1:
 RMSU=  3.69D-07    CP:  1.00D+00  1.05D+00  1.18D+00
 E= -1079.56698707262     Delta-E=       -0.000000026133 Rises=F Damp=F
 DIIS: error= 4.62D-06 at cycle   4 NSaved=   4.
 NSaved= 4 IEnMin= 4 EnMin= -1079.56698707262     IErMin= 4 ErrMin= 4.62D-06
 ErrMax= 4.62D-06  0.00D+00 EMaxC= 1.00D-01 BMatC= 3.77D-09 BMatP= 1.34D-08
 IDIUse=1 WtCom= 1.00D+00 WtEn= 0.00D+00
 Coeff-Com:  0.189D-01-0.559D+00-0.296D+00 0.184D+01
 Coeff:      0.189D-01-0.559D+00-0.296D+00 0.184D+01
 Gap=     0.323 Goal=   None    Shift=    0.000
 RMSDP=7.27D-07 MaxDP=3.01D-05 DE=-2.61D-08 OVMax= 1.37D-04

 Cycle  13  Pass 1  IDiag  1:
 RMSU=  2.50D-07    CP:  1.00D+00  1.05D+00  1.85D+00  2.03D+00
 E= -1079.56698709855     Delta-E=       -0.000000025928 Rises=F Damp=F
 DIIS: error= 9.31D-07 at cycle   5 NSaved=   5.
 NSaved= 5 IEnMin= 5 EnMin= -1079.56698709855     IErMin= 5 ErrMin= 9.31D-07
 ErrMax= 9.31D-07  0.00D+00 EMaxC= 1.00D-01 BMatC= 5.21D-10 BMatP= 3.77D-09
 IDIUse=1 WtCom= 1.00D+00 WtEn= 0.00D+00
 Coeff-Com:  0.100D-01-0.239D+00-0.193D+00 0.612D+00 0.810D+00
 Coeff:      0.100D-01-0.239D+00-0.193D+00 0.612D+00 0.810D+00
 Gap=     0.323 Goal=   None    Shift=    0.000
 RMSDP=1.81D-07 MaxDP=7.48D-06 DE=-2.59D-08 OVMax= 3.31D-05

 Cycle  14  Pass 1  IDiag  1:
 RMSU=  6.03D-08    CP:  1.00D+00  1.05D+00  1.98D+00  2.34D+00  1.26D+00
 E= -1079.56698710032     Delta-E=       -0.000000001775 Rises=F Damp=F
 DIIS: error= 3.50D-07 at cycle   6 NSaved=   6.
 NSaved= 6 IEnMin= 6 EnMin= -1079.56698710032     IErMin= 6 ErrMin= 3.50D-07
 ErrMax= 3.50D-07  0.00D+00 EMaxC= 1.00D-01 BMatC= 6.01D-11 BMatP= 5.21D-10
 IDIUse=1 WtCom= 1.00D+00 WtEn= 0.00D+00
 Coeff-Com: -0.486D-02 0.135D+00 0.102D+00-0.438D+00-0.127D+00 0.133D+01
 Coeff:     -0.486D-02 0.135D+00 0.102D+00-0.438D+00-0.127D+00 0.133D+01
 Gap=     0.323 Goal=   None    Shift=    0.000
 RMSDP=8.18D-08 MaxDP=3.06D-06 DE=-1.78D-09 OVMax= 1.58D-05

 Cycle  15  Pass 1  IDiag  1:
 RMSU=  3.86D-08    CP:  1.00D+00  1.05D+00  2.02D+00  2.40D+00  1.46D+00
                    CP:  1.52D+00
 E= -1079.56698710063     Delta-E=       -0.000000000304 Rises=F Damp=F
 DIIS: error= 1.93D-07 at cycle   7 NSaved=   7.
 NSaved= 7 IEnMin= 7 EnMin= -1079.56698710063     IErMin= 7 ErrMin= 1.93D-07
 ErrMax= 1.93D-07  0.00D+00 EMaxC= 1.00D-01 BMatC= 9.38D-12 BMatP= 6.01D-11
 IDIUse=1 WtCom= 1.00D+00 WtEn= 0.00D+00
 Coeff-Com: -0.105D-02 0.230D-01 0.289D-01-0.610D-01-0.101D+00-0.136D+00
 Coeff-Com:  0.125D+01
 Coeff:     -0.105D-02 0.230D-01 0.289D-01-0.610D-01-0.101D+00-0.136D+00
 Coeff:      0.125D+01
 Gap=     0.323 Goal=   None    Shift=    0.000
 RMSDP=3.18D-08 MaxDP=1.37D-06 DE=-3.04D-10 OVMax= 5.62D-06

 Cycle  16  Pass 1  IDiag  1:
 RMSU=  9.84D-09    CP:  1.00D+00  1.05D+00  2.03D+00  2.41D+00  1.51D+00
                    CP:  1.77D+00  1.56D+00
 E= -1079.56698710069     Delta-E=       -0.000000000068 Rises=F Damp=F
 DIIS: error= 6.14D-08 at cycle   8 NSaved=   8.
 NSaved= 8 IEnMin= 8 EnMin= -1079.56698710069     IErMin= 8 ErrMin= 6.14D-08
 ErrMax= 6.14D-08  0.00D+00 EMaxC= 1.00D-01 BMatC= 1.70D-12 BMatP= 9.38D-12
 IDIUse=1 WtCom= 1.00D+00 WtEn= 0.00D+00
 Coeff-Com:  0.752D-03-0.219D-01-0.125D-01 0.659D-01 0.105D-01-0.269D+00
 Coeff-Com:  0.200D+00 0.103D+01
 Coeff:      0.752D-03-0.219D-01-0.125D-01 0.659D-01 0.105D-01-0.269D+00
 Coeff:      0.200D+00 0.103D+01
 Gap=     0.323 Goal=   None    Shift=    0.000
 RMSDP=1.38D-08 MaxDP=5.55D-07 DE=-6.82D-11 OVMax= 2.35D-06

 Cycle  17  Pass 1  IDiag  1:
 RMSU=  4.43D-09    CP:  1.00D+00  1.05D+00  2.03D+00  2.41D+00  1.52D+00
                    CP:  1.84D+00  1.80D+00  1.37D+00
 E= -1079.56698710072     Delta-E=       -0.000000000022 Rises=F Damp=F
 DIIS: error= 2.12D-08 at cycle   9 NSaved=   9.
 NSaved= 9 IEnMin= 9 EnMin= -1079.56698710072     IErMin= 9 ErrMin= 2.12D-08
 ErrMax= 2.12D-08  0.00D+00 EMaxC= 1.00D-01 BMatC= 1.99D-13 BMatP= 1.70D-12
 IDIUse=1 WtCom= 1.00D+00 WtEn= 0.00D+00
 Coeff-Com:  0.948D-04-0.178D-02-0.209D-02 0.354D-02 0.138D-01 0.306D-01
 Coeff-Com: -0.170D+00-0.873D-01 0.121D+01
 Coeff:      0.948D-04-0.178D-02-0.209D-02 0.354D-02 0.138D-01 0.306D-01
 Coeff:     -0.170D+00-0.873D-01 0.121D+01
 Gap=     0.323 Goal=   None    Shift=    0.000
 RMSDP=4.50D-09 MaxDP=2.26D-07 DE=-2.18D-11 OVMax= 4.99D-07

 SCF Done:  E(RHF) =  -1079.56698710     A.U. after   17 cycles
            NFock= 17  Conv=0.45D-08     -V/T= 2.0016
 KE= 1.077834931088D+03 PE=-6.341051203232D+03 EE= 2.277020239657D+03
 Leave Link  502 at Sat Oct 18 15:07:54 2014, MaxMem=   536870912 cpu:       292.7
 (Enter //g09/l801.exe)
 Range of M.O.s used for correlation:     1   383
 NBasis=   383 NAE=    84 NBE=    84 NFC=     0 NFV=     0
 NROrb=    383 NOA=    84 NOB=    84 NVA=   299 NVB=   299
 Leave Link  801 at Sat Oct 18 15:07:54 2014, MaxMem=   536870912 cpu:         0.1
 (Enter //g09/linda-exe/l1101.exel)
 Using compressed storage, NAtomX=    42.
 Will process     43 centers per pass.
 Leave Link 1101 at Sat Oct 18 15:08:06 2014, MaxMem=   536870912 cpu:        35.2
 (Enter //g09/l1102.exe)
 Symmetrizing basis deriv contribution to polar:
 IMax=3 JMax=2 DiffMx= 0.00D+00
 Leave Link 1102 at Sat Oct 18 15:08:06 2014, MaxMem=   536870912 cpu:         0.2
 (Enter //g09/linda-exe/l1110.exel)
 Forming Gx(P) for the SCF density, NAtomX=    42.
 Integral derivatives from FoFJK, PRISM(SPDF).
 Do as many integral derivatives as possible in FoFJK.
 G2DrvN: MDV=     536870472.
 G2DrvN: will do    43 centers at a time, making    1 passes.
 Calling FoFCou, ICntrl=  3107 FMM=F I1Cent=   0 AccDes= 0.00D+00.
 FoFJK:  IHMeth= 1 ICntrl=    3107 DoSepK=F KAlg= 0 I1Cent=   0 FoldK=F
 IRaf=         0 NMat=   1 IRICut=       1 DoRegI=T DoRafI=F ISym2E= 0.
 FoFCou: FMM=F IPFlag=           0 FMFlag=      100000 FMFlg1=           0
         NFxFlg=           0 DoJE=F BraDBF=F KetDBF=F FulRan=T
         wScrn=  0.000000 ICntrl=    3107 IOpCl=  0 I1Cent=           0 NGrid=           0
         NMat0=    1 NMatS0=      1 NMatT0=    0 NMatD0=    1 NMtDS0=    0 NMtDT0=    0
 Symmetry not used in FoFCou.
 End of G2Drv F.D. properties file   721 does not exist.
 End of G2Drv F.D. properties file   722 does not exist.
 End of G2Drv F.D. properties file   788 does not exist.
 Leave Link 1110 at Sat Oct 18 15:08:50 2014, MaxMem=   536870912 cpu:       165.0
 (Enter //g09/linda-exe/l1002.exel)
 Minotr:  Closed shell wavefunction.
          IDoAtm=111111111111111111111111111111111111111111
          Direct CPHF calculation.
          Differentiating once with respect to nuclear coordinates.
          Requested convergence is 1.0D-08 RMS, and 1.0D-07 maximum.
          Secondary convergence is 1.0D-12 RMS, and 1.0D-12 maximum.
          NewPWx=T KeepS1=F KeepF1=F KeepIn=T MapXYZ=F SortEE=F KeepMc=T.
          MDV=     536870105 using IRadAn=       2.
          Solving linear equations simultaneously, MaxMat=       0.
 FoFJK:  IHMeth= 1 ICntrl=       0 DoSepK=F KAlg= 0 I1Cent=   0 FoldK=F
 IRaf= 680000000 NMat= 129 IRICut=     322 DoRegI=T DoRafI=T ISym2E= 2.
 FoFCou: FMM=F IPFlag=           0 FMFlag=      100000 FMFlg1=           0
         NFxFlg=           0 DoJE=F BraDBF=F KetDBF=F FulRan=T
         wScrn=  0.000000 ICntrl=       0 IOpCl=  0 I1Cent=           0 NGrid=           0
         NMat0=  129 NMatS0=    129 NMatT0=    0 NMatD0=  129 NMtDS0=    0 NMtDT0=    0
 Integrals replicated using symmetry in FoFCou.
          There are   129 degrees of freedom in the 1st order CPHF.  IDoFFX=6 NUNeed=     0.
    123 vectors produced by pass  0 Test12= 2.51D-14 1.00D-09 XBig12= 9.27D-02 1.33D-01.
 AX will form   123 AO Fock derivatives at one time.
    123 vectors produced by pass  1 Test12= 2.51D-14 1.00D-09 XBig12= 9.85D-03 2.42D-02.
    123 vectors produced by pass  2 Test12= 2.51D-14 1.00D-09 XBig12= 2.89D-04 2.36D-03.
    123 vectors produced by pass  3 Test12= 2.51D-14 1.00D-09 XBig12= 5.24D-06 3.80D-04.
    123 vectors produced by pass  4 Test12= 2.51D-14 1.00D-09 XBig12= 4.98D-08 2.00D-05.
    123 vectors produced by pass  5 Test12= 2.51D-14 1.00D-09 XBig12= 3.08D-10 1.43D-06.
    117 vectors produced by pass  6 Test12= 2.51D-14 1.00D-09 XBig12= 1.77D-12 8.92D-08.
     35 vectors produced by pass  7 Test12= 2.51D-14 1.00D-09 XBig12= 9.97D-15 5.50D-09.
 InvSVY:  IOpt=1 It=  1 EMax= 3.61D-16
 Solved reduced A of dimension   890 with   129 vectors.
 End of Minotr F.D. properties file   721 does not exist.
 End of Minotr F.D. properties file   722 does not exist.
 End of Minotr F.D. properties file   788 does not exist.
 Leave Link 1002 at Sat Oct 18 15:24:15 2014, MaxMem=   536870912 cpu:      3372.9
 (Enter //g09/l601.exe)
 Copying SCF densities to generalized density rwf, IOpCl= 0 IROHF=0.

 **********************************************************************

            Population analysis using the SCF density.

 **********************************************************************

 Orbital symmetries:
       Occupied  (A) (A) (A) (A) (A) (A) (A) (A) (A) (A) (A) (A)
                 (A) (A) (A) (A) (A) (A) (A) (A) (A) (A) (A) (A)
                 (A) (A) (A) (A) (A) (A) (A) (A) (A) (A) (A) (A)
                 (A) (A) (A) (A) (A) (A) (A) (A) (A) (A) (A) (A)
                 (A) (A) (A) (A) (A) (A) (A) (A) (A) (A) (A) (A)
                 (A) (A) (A) (A) (A) (A) (A) (A) (A) (A) (A) (A)
                 (A) (A) (A) (A) (A) (A) (A) (A) (A) (A) (A) (A)
       Virtual   (A) (A) (A) (A) (A) (A) (A) (A) (A) (A) (A) (A)
                 (A) (A) (A) (A) (A) (A) (A) (A) (A) (A) (A) (A)
                 (A) (A) (A) (A) (A) (A) (A) (A) (A) (A) (A) (A)
                 (A) (A) (A) (A) (A) (A) (A) (A) (A) (A) (A) (A)
                 (A) (A) (A) (A) (A) (A) (A) (A) (A) (A) (A) (A)
                 (A) (A) (A) (A) (A) (A) (A) (A) (A) (A) (A) (A)
                 (A) (A) (A) (A) (A) (A) (A) (A) (A) (A) (A) (A)
                 (A) (A) (A) (A) (A) (A) (A) (A) (A) (A) (A) (A)
                 (A) (A) (A) (A) (A) (A) (A) (A) (A) (A) (A) (A)
                 (A) (A) (A) (A) (A) (A) (A) (A) (A) (A) (A) (A)
                 (A) (A) (A) (A) (A) (A) (A) (A) (A) (A) (A) (A)
                 (A) (A) (A) (A) (A) (A) (A) (A) (A) (A) (A) (A)
                 (A) (A) (A) (A) (A) (A) (A) (A) (A) (A) (A) (A)
                 (A) (A) (A) (A) (A) (A) (A) (A) (A) (A) (A) (A)
                 (A) (A) (A) (A) (A) (A) (A) (A) (A) (A) (A) (A)
                 (A) (A) (A) (A) (A) (A) (A) (A) (A) (A) (A) (A)
                 (A) (A) (A) (A) (A) (A) (A) (A) (A) (A) (A) (A)
                 (A) (A) (A) (A) (A) (A) (A) (A) (A) (A) (A) (A)
                 (A) (A) (A) (A) (A) (A) (A) (A) (A) (A) (A) (A)
                 (A) (A) (A) (A) (A) (A) (A) (A) (A) (A) (A) (A)
                 (A) (A) (A) (A) (A) (A) (A) (A) (A) (A) (A) (A)
                 (A) (A) (A) (A) (A) (A) (A) (A) (A) (A) (A) (A)
                 (A) (A) (A) (A) (A) (A) (A) (A) (A) (A) (A) (A)
                 (A) (A) (A) (A) (A) (A) (A) (A) (A) (A) (A) (A)
                 (A) (A) (A) (A) (A) (A) (A) (A) (A) (A) (A)
 The electronic state is 1-A.
 Alpha  occ. eigenvalues --  -20.61136 -20.56817 -20.54143 -20.53555 -15.62517
 Alpha  occ. eigenvalues --  -15.57762 -15.56719 -11.35764 -11.35510 -11.33928
 Alpha  occ. eigenvalues --  -11.32774 -11.28761 -11.28272 -11.27965 -11.27336
 Alpha  occ. eigenvalues --  -11.26721 -11.26368 -11.26365 -11.26238 -11.25360
 Alpha  occ. eigenvalues --  -11.25007 -11.24148 -11.24127  -1.41826  -1.40727
 Alpha  occ. eigenvalues --   -1.36628  -1.32669  -1.26202  -1.23845  -1.22652
 Alpha  occ. eigenvalues --   -1.16798  -1.09213  -1.06143  -1.04835  -1.03061
 Alpha  occ. eigenvalues --   -1.00004  -0.99371  -0.96551  -0.92236  -0.87227
 Alpha  occ. eigenvalues --   -0.86040  -0.82558  -0.81575  -0.78977  -0.76273
 Alpha  occ. eigenvalues --   -0.74957  -0.74088  -0.71533  -0.69397  -0.68671
 Alpha  occ. eigenvalues --   -0.67003  -0.66439  -0.65720  -0.64161  -0.63113
 Alpha  occ. eigenvalues --   -0.62135  -0.61350  -0.61042  -0.60522  -0.60102
 Alpha  occ. eigenvalues --   -0.59956  -0.59079  -0.58924  -0.57503  -0.56640
 Alpha  occ. eigenvalues --   -0.55746  -0.55002  -0.54778  -0.54383  -0.52666
 Alpha  occ. eigenvalues --   -0.50775  -0.50623  -0.50242  -0.48200  -0.47641
 Alpha  occ. eigenvalues --   -0.47099  -0.43984  -0.41408  -0.41016  -0.40719
 Alpha  occ. eigenvalues --   -0.39120  -0.36841  -0.35068  -0.28439
 Alpha virt. eigenvalues --    0.03851   0.10948   0.12506   0.16428   0.18591
 Alpha virt. eigenvalues --    0.19196   0.20685   0.21691   0.23343   0.23599
 Alpha virt. eigenvalues --    0.25611   0.26704   0.27882   0.28098   0.28680
 Alpha virt. eigenvalues --    0.30145   0.30292   0.30783   0.31237   0.31859
 Alpha virt. eigenvalues --    0.32894   0.33358   0.34172   0.35761   0.36623
 Alpha virt. eigenvalues --    0.37181   0.37436   0.38364   0.39394   0.39742
 Alpha virt. eigenvalues --    0.41705   0.42784   0.43717   0.44141   0.44675
 Alpha virt. eigenvalues --    0.46411   0.46916   0.47699   0.48875   0.49165
 Alpha virt. eigenvalues --    0.50975   0.51706   0.54356   0.55018   0.56541
 Alpha virt. eigenvalues --    0.60141   0.62753   0.65803   0.69066   0.69747
 Alpha virt. eigenvalues --    0.70803   0.72519   0.73544   0.73979   0.74325
 Alpha virt. eigenvalues --    0.75190   0.76182   0.76596   0.77386   0.77998
 Alpha virt. eigenvalues --    0.78875   0.79460   0.80498   0.80838   0.81092
 Alpha virt. eigenvalues --    0.81402   0.81988   0.82493   0.83720   0.84496
 Alpha virt. eigenvalues --    0.85128   0.85440   0.87285   0.87651   0.88092
 Alpha virt. eigenvalues --    0.88760   0.90176   0.92325   0.93335   0.94616
 Alpha virt. eigenvalues --    0.95559   0.96247   0.97714   0.97835   0.99008
 Alpha virt. eigenvalues --    0.99850   1.01344   1.01789   1.02977   1.03529
 Alpha virt. eigenvalues --    1.05831   1.06902   1.07885   1.08616   1.09763
 Alpha virt. eigenvalues --    1.10189   1.10527   1.10883   1.11329   1.13128
 Alpha virt. eigenvalues --    1.13525   1.14371   1.14611   1.15409   1.15795
 Alpha virt. eigenvalues --    1.16522   1.16787   1.17544   1.18419   1.19576
 Alpha virt. eigenvalues --    1.20294   1.20693   1.20835   1.21241   1.21460
 Alpha virt. eigenvalues --    1.22337   1.22973   1.23600   1.24233   1.25121
 Alpha virt. eigenvalues --    1.26191   1.26734   1.28238   1.29525   1.30516
 Alpha virt. eigenvalues --    1.31592   1.33416   1.34171   1.34745   1.36406
 Alpha virt. eigenvalues --    1.37039   1.37403   1.38638   1.39322   1.40138
 Alpha virt. eigenvalues --    1.40902   1.43164   1.43699   1.44450   1.48074
 Alpha virt. eigenvalues --    1.49012   1.49109   1.51753   1.53144   1.53582
 Alpha virt. eigenvalues --    1.55742   1.56596   1.58144   1.60912   1.61495
 Alpha virt. eigenvalues --    1.62097   1.63364   1.64351   1.65521   1.68252
 Alpha virt. eigenvalues --    1.68479   1.70606   1.71745   1.71979   1.72318
 Alpha virt. eigenvalues --    1.72826   1.73843   1.74799   1.78031   1.82784
 Alpha virt. eigenvalues --    1.84867   1.86820   1.87652   1.90908   1.93177
 Alpha virt. eigenvalues --    1.93898   1.96201   1.99396   2.00873   2.01137
 Alpha virt. eigenvalues --    2.03576   2.04164   2.05989   2.06734   2.07983
 Alpha virt. eigenvalues --    2.08410   2.09507   2.10137   2.12525   2.13320
 Alpha virt. eigenvalues --    2.14274   2.15320   2.15513   2.16215   2.17096
 Alpha virt. eigenvalues --    2.17988   2.19262   2.20343   2.21414   2.21693
 Alpha virt. eigenvalues --    2.22864   2.24701   2.26141   2.27952   2.28920
 Alpha virt. eigenvalues --    2.30999   2.31948   2.32228   2.32660   2.34243
 Alpha virt. eigenvalues --    2.34442   2.35747   2.37896   2.39655   2.40532
 Alpha virt. eigenvalues --    2.41833   2.42507   2.42717   2.44946   2.46550
 Alpha virt. eigenvalues --    2.49041   2.50527   2.53181   2.53482   2.56211
 Alpha virt. eigenvalues --    2.57266   2.57791   2.58318   2.59361   2.59818
 Alpha virt. eigenvalues --    2.61116   2.61627   2.63241   2.64262   2.65052
 Alpha virt. eigenvalues --    2.67294   2.68444   2.70263   2.71167   2.71844
 Alpha virt. eigenvalues --    2.72190   2.73832   2.75063   2.76001   2.77139
 Alpha virt. eigenvalues --    2.79621   2.82685   2.83616   2.86824   2.87095
 Alpha virt. eigenvalues --    2.89442   2.92961   2.93228   2.93861   2.94931
 Alpha virt. eigenvalues --    2.95903   2.96903   2.99947   3.02114   3.03574
 Alpha virt. eigenvalues --    3.06590   3.07872   3.11069   3.11878   3.15219
 Alpha virt. eigenvalues --    3.17736   3.19946   3.22132   3.24436   3.27493
 Alpha virt. eigenvalues --    3.29772   3.31382   3.32739   3.34826   3.39782
 Alpha virt. eigenvalues --    3.43119   3.48202   3.62748   3.65966   3.72713
 Alpha virt. eigenvalues --    3.80206   4.22811   4.23910   4.33824   4.37549
 Alpha virt. eigenvalues --    4.46418   4.48925   4.52992   4.54492   4.56035
 Alpha virt. eigenvalues --    4.60013   4.65783   4.69582   4.71350   4.74283
 Alpha virt. eigenvalues --    4.76784   4.82344   4.83466   4.86996   4.95058
 Alpha virt. eigenvalues --    5.02073   5.12621   5.18559   5.26325
          Condensed to atoms (all electrons):
               1          2          3          4          5          6
     1  C    4.428987   0.581938  -0.087197  -0.060233   0.000544   0.274844
     2  N    0.581938   7.018289   0.333789  -0.078699   0.004600  -0.095742
     3  C   -0.087197   0.333789   4.909784   0.415609  -0.099142  -0.106978
     4  C   -0.060233  -0.078699   0.415609   4.184975   0.571830   0.274986
     5  O    0.000544   0.004600  -0.099142   0.571830   8.233227  -0.080057
     6  N    0.274844  -0.095742  -0.106978   0.274986  -0.080057   7.644737
     7  C   -0.023075   0.003205   0.006870  -0.039700  -0.006356   0.067011
     8  H   -0.000683   0.000188   0.000306   0.001663   0.000347  -0.053059
     9  H    0.001165  -0.000233   0.001370  -0.001823   0.016720  -0.042737
    10  C    0.000166  -0.000043  -0.000639  -0.000860   0.000275  -0.056081
    11  O    0.000010   0.000000   0.000001   0.000018  -0.000008   0.002424
    12  C    0.381210  -0.060362   0.004378   0.001122  -0.000053  -0.063332
    13  H   -0.055865   0.004074  -0.000246   0.000005  -0.000002  -0.003348
    14  N   -0.055093  -0.003687   0.000084  -0.000068   0.000000   0.001782
    15  H   -0.002561   0.002332  -0.000205  -0.000010   0.000001   0.000251
    16  C   -0.032975  -0.006462  -0.000204   0.000095   0.000000   0.003305
    17  H    0.005445  -0.000019   0.000012   0.000000   0.000000  -0.000063
    18  H   -0.006174   0.007501  -0.000327   0.000035   0.000000   0.000049
    19  O   -0.000862   0.000690   0.000074  -0.000004   0.000000  -0.000468
    20  H    0.000211  -0.000003  -0.000004   0.000000   0.000000   0.000014
    21  C    0.002259  -0.061053   0.587064  -0.048646   0.006652   0.008087
    22  H   -0.000119   0.002392  -0.022952  -0.001850   0.008905   0.000385
    23  C    0.000073   0.002595  -0.049640   0.004335   0.000709  -0.000054
    24  C    0.000162  -0.011749  -0.008144  -0.000034   0.000001  -0.000002
[...]
    38  H   -0.000001   0.000000   0.000000   0.000000   0.000000   0.000000
    39  C   -0.003597   0.250330  -0.030965  -0.000981   0.000197   0.000152
    40  H    0.002577  -0.042066   0.003945   0.000149   0.000091  -0.000001
    41  H    0.000051  -0.038870  -0.003238  -0.000098   0.000016  -0.000003
    42  H   -0.000244  -0.052474  -0.001768   0.000929  -0.000149  -0.000073
              19         20         21         22         23         24
     1  C    0.008311   0.003444   0.000814  -0.000169   0.000159   0.000154
     2  N   -0.009171   0.015273  -0.065626   0.002884   0.001921  -0.011468
     3  C    0.000368   0.000119   0.593293  -0.032989  -0.042013  -0.009593
     4  C   -0.000035   0.000070  -0.053385  -0.002995   0.003409  -0.000049
     5  O    0.000000   0.000000   0.006616   0.009233   0.000369   0.000001
     6  N   -0.000023   0.000094   0.008974   0.000631  -0.000080  -0.000004
     7  C   -0.000001  -0.000003  -0.000142  -0.000009   0.000000   0.000000
     8  H   -0.000002  -0.000001   0.000000   0.000000   0.000000   0.000000
     9  H    0.000000   0.000000  -0.000026  -0.000005   0.000000   0.000000
    10  C   -0.000002   0.000002   0.000005   0.000000   0.000000   0.000000
    11  O    0.000000   0.000000   0.000000   0.000000   0.000000   0.000000
    12  C   -0.054350  -0.006202  -0.000097   0.000006  -0.000007   0.000026
    13  H    0.004223  -0.000521   0.000000   0.000000   0.000000   0.000000
    14  N    0.002910  -0.000002   0.000001   0.000000   0.000000   0.000000
    15  H    0.000006  -0.000007  -0.000003   0.000000   0.000000   0.000000
    16  C    0.216016  -0.024501  -0.000049   0.000000   0.000004  -0.000047
    17  H   -0.033816   0.004729   0.000000   0.000000   0.000000   0.000000
    18  H   -0.033168  -0.004934  -0.000019   0.000000   0.000003   0.000029
    19  O    8.395157   0.260629   0.000019   0.000000  -0.000001  -0.000054
    20  H    0.260629   0.283176  -0.000126  -0.000001   0.000052   0.000019
    21  C    0.000019  -0.000126   5.041605   0.376051   0.361048  -0.035876
    22  H    0.000000  -0.000001   0.376051   0.430833  -0.036808   0.002083
    23  C   -0.000001   0.000052   0.361048  -0.036808   4.784301   0.553939
    24  C   -0.000054   0.000019  -0.035876   0.002083   0.553939   4.917515
    25  H    0.000169   0.000556  -0.005457  -0.000074  -0.020113   0.368262
    26  C    0.000000   0.000001  -0.040513  -0.000411   0.554805  -0.045641
    27  H    0.000000   0.000000  -0.001076   0.003549  -0.031796   0.003037
    28  C    0.000000   0.000004   0.003941  -0.000073  -0.044582   0.539249
    29  H    0.000000  -0.000001  -0.000092   0.000001   0.001668  -0.026871
    30  C    0.000000   0.000000   0.004023   0.000235  -0.046739  -0.031511
    31  H    0.000000   0.000000  -0.000102  -0.000008   0.001419   0.000194
    32  C    0.000000   0.000000   0.000036  -0.000005  -0.023336  -0.039621
    33  O    0.000000   0.000000   0.000000   0.000000   0.000085   0.001920
    34  H    0.000000   0.000000   0.000000   0.000000  -0.000005  -0.000164
    35  C   -0.000003   0.000000   0.000009   0.000000   0.000000   0.000000
    36  H    0.000026   0.000009   0.000003   0.000000   0.000000   0.000000
    37  H    0.000000   0.000000  -0.000013  -0.000001   0.000000   0.000000
    38  H    0.000000   0.000000   0.000000   0.000000   0.000000   0.000000
    39  C   -0.000043  -0.000004   0.000000   0.000000   0.000000   0.000000
    40  H    0.000003   0.000000   0.000000   0.000000   0.000000   0.000000
    41  H    0.000001   0.000000   0.000000   0.000000   0.000000   0.000000
    42  H   -0.000084   0.000001   0.000000   0.000000   0.000000   0.000000
              25         26         27         28         29         30
     1  C   -0.000110   0.000001   0.000000   0.000001   0.000000   0.000000
     2  N    0.011068   0.000111   0.000002   0.000025  -0.000004  -0.000004
     3  C    0.001144   0.003638   0.000126  -0.000083  -0.000001  -0.000211
     4  C    0.000143  -0.000126  -0.000001   0.000001   0.000000   0.000000
     5  O   -0.000001  -0.000009  -0.000002   0.000000   0.000000   0.000000
     6  N    0.000035   0.000000   0.000000   0.000000   0.000000   0.000000
     7  C    0.000000   0.000000   0.000000   0.000000   0.000000   0.000000
     8  H    0.000000   0.000000   0.000000   0.000000   0.000000   0.000000
     9  H    0.000000   0.000000   0.000000   0.000000   0.000000   0.000000
    10  C    0.000000   0.000000   0.000000   0.000000   0.000000   0.000000
    11  O    0.000000   0.000000   0.000000   0.000000   0.000000   0.000000
    12  C   -0.000066   0.000000   0.000000   0.000000   0.000000   0.000000
    13  H    0.000001   0.000000   0.000000   0.000000   0.000000   0.000000
    14  N   -0.000001   0.000000   0.000000   0.000000   0.000000   0.000000
    15  H    0.000000   0.000000   0.000000   0.000000   0.000000   0.000000
    16  C    0.000097   0.000000   0.000000   0.000000   0.000000   0.000000
    17  H   -0.000001   0.000000   0.000000   0.000000   0.000000   0.000000
    18  H    0.000025   0.000000   0.000000  -0.000001   0.000000   0.000000
    19  O    0.000169   0.000000   0.000000   0.000000   0.000000   0.000000
    20  H    0.000556   0.000001   0.000000   0.000004  -0.000001   0.000000
    21  C   -0.005457  -0.040513  -0.001076   0.003941  -0.000092   0.004023
    22  H   -0.000074  -0.000411   0.003549  -0.000073   0.000001   0.000235
    23  C   -0.020113   0.554805  -0.031796  -0.044582   0.001668  -0.046739
    24  C    0.368262  -0.045641   0.003037   0.539249  -0.026871  -0.031511
    25  H    0.411542   0.003410  -0.000108  -0.029643  -0.001544  -0.000027
    26  C    0.003410   4.920487   0.375578  -0.033796  -0.000036   0.501595
    27  H   -0.000108   0.375578   0.457536   0.000236   0.000011  -0.025240
    28  C   -0.029643  -0.033796   0.000236   4.976049   0.377642  -0.060250
    29  H   -0.001544  -0.000036   0.000011   0.377642   0.448447   0.003741
    30  C   -0.000027   0.501595  -0.025240  -0.060250   0.003741   5.076648
    31  H    0.000008  -0.019667  -0.001650   0.002682  -0.000108   0.375405
    32  C    0.001989  -0.033125   0.001114   0.565882  -0.028237   0.557347
    33  O   -0.000041   0.004114  -0.000043  -0.048291  -0.000099  -0.058825
    34  H    0.000003   0.000523  -0.000008   0.004616  -0.000172   0.000084
    35  C    0.000000   0.000000   0.000000   0.000000   0.000000   0.000000
    36  H    0.000000   0.000000   0.000000   0.000000   0.000000   0.000000
    37  H    0.000000   0.000000   0.000000   0.000000   0.000000   0.000000
    38  H    0.000000   0.000000   0.000000   0.000000   0.000000   0.000000
    39  C    0.000000   0.000000   0.000000   0.000000   0.000000   0.000000
    40  H    0.000000   0.000000   0.000000   0.000000   0.000000   0.000000
    41  H    0.000000   0.000000   0.000000   0.000000   0.000000   0.000000
    42  H    0.000000   0.000000   0.000000   0.000000   0.000000   0.000000
              31         32         33         34         35         36
     1  C    0.000000   0.000000   0.000000   0.000000   0.001178   0.000653
     2  N    0.000000   0.000001   0.000000   0.000000  -0.000101  -0.000010
     3  C    0.000002   0.000022   0.000000   0.000000   0.000142   0.000024
     4  C    0.000000   0.000000   0.000000   0.000000  -0.000165  -0.000182
     5  O    0.000000   0.000000   0.000000   0.000000  -0.001152  -0.000027
     6  N    0.000000   0.000000   0.000000   0.000000   0.007854  -0.000091
     7  C    0.000000   0.000000   0.000000   0.000000  -0.109082  -0.000109
     8  H    0.000000   0.000000   0.000000   0.000000   0.004106  -0.000173
     9  H    0.000000   0.000000   0.000000   0.000000   0.002399   0.000098
    10  C    0.000000   0.000000   0.000000   0.000000   0.332364  -0.025589
    11  O    0.000000   0.000000   0.000000   0.000000  -0.072635   0.000444
    12  C    0.000000   0.000000   0.000000   0.000000  -0.000116   0.000176
    13  H    0.000000   0.000000   0.000000   0.000000  -0.000080   0.000073
    14  N    0.000000   0.000000   0.000000   0.000000   0.000000   0.000003
    15  H    0.000000   0.000000   0.000000   0.000000   0.000000   0.000000
    16  C    0.000000   0.000000   0.000000   0.000000   0.000003  -0.000018
    17  H    0.000000   0.000000   0.000000   0.000000   0.000000   0.000000
    18  H    0.000000   0.000000   0.000000   0.000000   0.000000   0.000000
    19  O    0.000000   0.000000   0.000000   0.000000  -0.000003   0.000026
    20  H    0.000000   0.000000   0.000000   0.000000   0.000000   0.000009
    21  C   -0.000102   0.000036   0.000000   0.000000   0.000009   0.000003
    22  H   -0.000008  -0.000005   0.000000   0.000000   0.000000   0.000000
    23  C    0.001419  -0.023336   0.000085  -0.000005   0.000000   0.000000
    24  C    0.000194  -0.039621   0.001920  -0.000164   0.000000   0.000000
    25  H    0.000008   0.001989  -0.000041   0.000003   0.000000   0.000000
    26  C   -0.019667  -0.033125   0.004114   0.000523   0.000000   0.000000
    27  H   -0.001650   0.001114  -0.000043  -0.000008   0.000000   0.000000
    28  C    0.002682   0.565882  -0.048291   0.004616   0.000000   0.000000
    29  H   -0.000108  -0.028237  -0.000099  -0.000172   0.000000   0.000000
    30  C    0.375405   0.557347  -0.058825   0.000084   0.000000   0.000000
    31  H    0.473313  -0.034355  -0.002429   0.004113   0.000000   0.000000
    32  C   -0.034355   4.362532   0.274820  -0.030020   0.000000   0.000000
    33  O   -0.002429   0.274820   8.308996   0.268083   0.000000   0.000000
    34  H    0.004113  -0.030020   0.268083   0.291775   0.000000   0.000000
    35  C    0.000000   0.000000   0.000000   0.000000   5.291995   0.374759
    36  H    0.000000   0.000000   0.000000   0.000000   0.374759   0.495140
    37  H    0.000000   0.000000   0.000000   0.000000   0.374237  -0.023022
    38  H    0.000000   0.000000   0.000000   0.000000   0.383267  -0.018730
    39  C    0.000000   0.000000   0.000000   0.000000  -0.000005   0.000001
    40  H    0.000000   0.000000   0.000000   0.000000   0.000019  -0.000004
    41  H    0.000000   0.000000   0.000000   0.000000   0.000000   0.000000
    42  H    0.000000   0.000000   0.000000   0.000000   0.000000   0.000000
              37         38         39         40         41         42
     1  C   -0.000092  -0.000029   0.005606  -0.000269  -0.000075  -0.000401
     2  N    0.000004   0.000000  -0.000044  -0.000004   0.000001   0.000003
     3  C    0.000013  -0.000002   0.000006   0.000000   0.000000   0.000000
     4  C    0.001100   0.000023   0.000000   0.000000   0.000000   0.000000
     5  O    0.003437   0.000010   0.000000   0.000000   0.000000   0.000000
     6  N   -0.003685   0.000017  -0.000141   0.000040   0.000003  -0.000002
     7  C    0.006797   0.004153   0.000506   0.000026   0.000039  -0.000031
     8  H   -0.000029  -0.000067  -0.001215  -0.000180  -0.000138   0.000115
     9  H   -0.000337  -0.000144  -0.000012   0.000003   0.000000   0.000000
    10  C   -0.031803  -0.033262  -0.000098   0.000022  -0.000003   0.000005
    11  O    0.001948   0.003110  -0.000413   0.001837   0.000002   0.000002
    12  C   -0.000003   0.000000  -0.054965  -0.004270   0.004402  -0.000234
    13  H    0.000005  -0.000001  -0.003597   0.002577   0.000051  -0.000244
    14  N    0.000000   0.000000   0.250330  -0.042066  -0.038870  -0.052474
    15  H    0.000000   0.000000  -0.030965   0.003945  -0.003238  -0.001768
    16  C    0.000000   0.000000  -0.000981   0.000149  -0.000098   0.000929
    17  H    0.000000   0.000000   0.000197   0.000091   0.000016  -0.000149
    18  H    0.000000   0.000000   0.000152  -0.000001  -0.000003  -0.000073
    19  O    0.000000   0.000000  -0.000043   0.000003   0.000001  -0.000084
    20  H    0.000000   0.000000  -0.000004   0.000000   0.000000   0.000001
    21  C   -0.000013   0.000000   0.000000   0.000000   0.000000   0.000000
    22  H   -0.000001   0.000000   0.000000   0.000000   0.000000   0.000000
    23  C    0.000000   0.000000   0.000000   0.000000   0.000000   0.000000
    24  C    0.000000   0.000000   0.000000   0.000000   0.000000   0.000000
    25  H    0.000000   0.000000   0.000000   0.000000   0.000000   0.000000
    26  C    0.000000   0.000000   0.000000   0.000000   0.000000   0.000000
    27  H    0.000000   0.000000   0.000000   0.000000   0.000000   0.000000
    28  C    0.000000   0.000000   0.000000   0.000000   0.000000   0.000000
    29  H    0.000000   0.000000   0.000000   0.000000   0.000000   0.000000
    30  C    0.000000   0.000000   0.000000   0.000000   0.000000   0.000000
    31  H    0.000000   0.000000   0.000000   0.000000   0.000000   0.000000
    32  C    0.000000   0.000000   0.000000   0.000000   0.000000   0.000000
    33  O    0.000000   0.000000   0.000000   0.000000   0.000000   0.000000
    34  H    0.000000   0.000000   0.000000   0.000000   0.000000   0.000000
    35  C    0.374237   0.383267  -0.000005   0.000019   0.000000   0.000000
    36  H   -0.023022  -0.018730   0.000001  -0.000004   0.000000   0.000000
    37  H    0.480553  -0.018480   0.000000   0.000000   0.000000   0.000000
    38  H   -0.018480   0.469304   0.000000   0.000000   0.000000   0.000000
    39  C    0.000000   0.000000   4.935951   0.402051   0.403742   0.395185
    40  H    0.000000   0.000000   0.402051   0.501546  -0.021361  -0.037667
    41  H    0.000000   0.000000   0.403742  -0.021361   0.509778  -0.034224
    42  H    0.000000   0.000000   0.395185  -0.037667  -0.034224   0.582644
 Mulliken charges:
               1
     1  C    0.691336
     2  N   -0.695496
     3  C    0.119898
     4  C    0.805020
     5  O   -0.614183
     6  N   -0.814002
     7  C   -0.230697
     8  H    0.260006
     9  H    0.245870
    10  C    0.524098
    11  O   -0.522199
    12  C   -0.079185
    13  H    0.212240
    14  N   -0.721477
    15  H    0.353371
    16  C    0.020382
    17  H    0.179371
    18  H    0.153837
    19  O   -0.757087
    20  H    0.468124
    21  C   -0.193837
    22  H    0.248043
    23  C   -0.017700
    24  C   -0.185528
    25  H    0.258735
    26  C   -0.190937
    27  H    0.218735
    28  C   -0.253608
    29  H    0.225654
    30  C   -0.296271
    31  H    0.201182
    32  C    0.424957
    33  O   -0.748290
    34  H    0.461171
    35  C   -0.588992
    36  H    0.196546
    37  H    0.209372
    38  H    0.210832
    39  C   -0.301244
    40  H    0.193513
    41  H    0.179975
    42  H    0.148466
 Sum of Mulliken charges =   0.00000
 Mulliken charges with hydrogens summed into heavy atoms:
               1
     1  C    0.691336
     2  N   -0.695496
     3  C    0.119898
     4  C    0.805020
     5  O   -0.614183
     6  N   -0.814002
     7  C    0.275180
    10  C    0.524098
    11  O   -0.522199
    12  C    0.133055
    14  N   -0.368105
    16  C    0.353590
    19  O   -0.288962
    21  C    0.054206
    23  C   -0.017700
    24  C    0.073207
    26  C    0.027798
    28  C   -0.027954
    30  C   -0.095089
    32  C    0.424957
    33  O   -0.287119
    35  C    0.027757
    39  C    0.220709
 Electronic spatial extent (au):  <R**2>=           9604.5983
 Charge=              0.0000 electrons
 Dipole moment (field-independent basis, Debye):
    X=             -3.2436    Y=              0.4705    Z=             -1.4032  Tot=              3.5653
 Quadrupole moment (field-independent basis, Debye-Ang):
   XX=           -123.7769   YY=           -136.5786   ZZ=           -139.3215
   XY=             16.5428   XZ=             -5.0073   YZ=            -11.0612
 Traceless Quadrupole moment (field-independent basis, Debye-Ang):
   XX=              9.4488   YY=             -3.3529   ZZ=             -6.0959
   XY=             16.5428   XZ=             -5.0073   YZ=            -11.0612
 Octapole moment (field-independent basis, Debye-Ang**2):
  XXX=           -296.3209  YYY=             38.0243  ZZZ=             -4.6399  XYY=             18.8543
  XXY=            -52.2088  XXZ=            -19.9121  XZZ=             22.5017  YZZ=             -7.0741
  YYZ=            -11.1003  XYZ=            -16.5459
 Hexadecapole moment (field-independent basis, Debye-Ang**3):
 XXXX=          -8518.4307 YYYY=          -2453.2794 ZZZZ=           -669.0122 XXXY=            613.1165
 XXXZ=           -187.3132 YYYX=             50.2810 YYYZ=            -90.9134 ZZZX=            -19.0257
 ZZZY=            -41.9644 XXYY=          -1879.3671 XXZZ=          -1738.8282 YYZZ=           -535.0722
 XXYZ=            -20.8611 YYXZ=             -9.5436 ZZXY=            -28.4357
 N-N= 1.913025330756D+03 E-N=-6.354522584041D+03  KE= 1.078293502022D+03
 No NMR shielding tensors so no spin-rotation constants.
 Leave Link  601 at Sat Oct 18 16:25:56 2014, MaxMem=   536870912 cpu:         1.2
 (Enter //g09/l9999.exe)

 Test job not archived.
 1\1\GINC-SIMONE\FOpt\RHF\6-31G(d)\C16H19N3O4\AEFRISCH\18-Oct-2014\0\\#
 P hf/6-31G* Opt=(Tight,CalcFC) Freq SCF(Conver=8) Test\\Gaussian optim
 ization output to be used by R.E.D.\\0,1\C,17.300414392,0.7217045948,1
 05.7470668066\N,16.3334309927,0.393333341,104.9882038679\C,15.15541661
 91,0.8177695612,105.6269096369\C,15.5360686454,1.4757964326,106.899011
 3952\O,14.8679128053,1.9893148785,107.7480576693\N,16.9146589688,1.377
 1317924,106.9054807432\C,17.7480982308,1.8376784442,107.9955497475\H,1
 8.4830697465,1.0898533055,108.2430554537\H,17.0896845512,1.9842334968,
 108.8434115438\C,18.4600867159,3.1579156391,107.7211230663\O,19.594074
 7941,3.2951604726,108.0634130238\C,18.7538514809,0.4425234187,105.4393
 307101\H,19.2972812556,1.3749451067,105.5572660535\N,19.2600968975,-0.
 4918416498,106.4297343398\H,18.9379757441,-1.4188815658,106.2301554222
 \C,18.9303579117,-0.0200447934,103.988988545\H,19.9832969909,-0.185055
 0114,103.8050118296\H,18.4146610947,-0.9657584453,103.846225218\O,18.5
 051340316,0.9368113104,103.068423878\H,17.5572055241,0.9688542882,103.
 0976097487\C,13.8854683097,0.7006919489,105.2393338314\H,13.1770735738
 ,1.1322319635,105.9255999417\C,13.3078398943,0.0892970963,104.04332300
 46\C,14.0524204407,-0.6001311745,103.0762402731\H,15.1115219914,-0.701
 6478283,103.201028303\C,11.9325026134,0.1895161033,103.8522113788\H,11
 .333036784,0.7083883761,104.5792879138\C,13.4452622893,-1.1533606213,1
 01.9728094131\H,14.0149031357,-1.6825776283,101.2320724268\C,11.310803
 6077,-0.3605950665,102.7458197743\H,10.2454928921,-0.2667875775,102.62
 11533152\C,12.0690569628,-1.0339973427,101.8018989178\O,11.5300018648,
 -1.5945486194,100.7030395653\H,10.5928852199,-1.4583288122,100.6780730
 981\C,17.6777619883,4.2603389726,107.0463611859\H,17.590586741,4.05353
 09064,105.9836205598\H,16.6730752674,4.3289805953,107.4481063554\H,18.
 2007592344,5.1975839689,107.1758972709\C,20.6971825818,-0.4702784583,1
 06.6468282268\H,20.9859569893,0.5034182734,107.0243891859\H,20.9456634
 784,-1.2056664208,107.4020724565\H,21.2909667468,-0.6825032722,105.758
 8049028\\Version=AS64L-G09RevD.01\State=1-A\HF=-1079.7435047\RMSD=7.08
 7e-09\RMSF=7.884e-08\Dipole=-0.9624323,-0.9064492,-0.4686676\Quadrupol
 e=12.8354266,-1.5035205,-11.3319061,-6.8733334,8.0462746,-3.3340099\PG
 =C01 [X(C16H19N3O4)]\\@


 PENOTUS DIED A HUNDRED YEARS OLD WANTING BUT TWO...
 AND HE USED TO SAY BEFORE HE DIED, HAVING SPENT HIS
 WHOLE LIFE IN VAINLY SEARCHING AFTER THE PHILOSOPHER'S
 STONE, THAT IF HE HAD A MORTAL ENEMY HE DID NOT DARE
 TO ENCOUNTER OPENLY, HE WOULD ADVISE HIM ABOVE ALL
 THINGS TO GIVE HIMSELF UP TO THE STUDY AND PRACTICE
 OF ALCHEMY.  --  NICOLAS LEMERY, M.D.
 "A COURSE OF CHYMISTRY", WALTER KETTILBY, LONDON, 1686
 Leave Link 9999 at Sat Oct 18 16:25:56 2014, MaxMem=   536870912 cpu:         0.1
 Job cpu time:       0 days  0 hours  0 minutes 59.4 seconds.
 File lengths (MBytes):  RWF=    684 Int=      0 D2E=      0 Chk=     13 Scr=      1
 Normal termination of Gaussian 09 at Sat Oct 18 16:25:56 2014.
